ITEM: TIMESTEP
0
ITEM: NUMBER OF ATOMS
10000
ITEM: BOX BOUNDS pp pp pp
0.0 32.316520
0.0 32.316520
0.0 32.316520
ITEM: ATOMS id type xs ys zs
1 1 0.140796 0.277872 0.349782
2 1 0.131970 0.656884 0.069821
3 1 0.523138 0.033287 0.506764
4 1 0.052651 0.389660 0.420316
5 1 0.377446 0.989059 0.706819
6 1 0.941481 0.534084 0.820773
7 1 0.386892 0.763012 0.898755
8 1 0.948496 0.004990 0.437640
9 1 0.701754 0.737206 0.537122
10 1 0.323262 0.005345 0.359764
11 1 0.886021 0.520530 0.414042
12 1 0.797799 0.564134 0.935107
13 1 0.938629 0.721808 0.355682
14 1 0.692470 0.215740 0.566765
15 1 0.774634 0.020945 0.910936
16 1 0.614809 0.081692 0.562522
17 1 0.192834 0.840392 0.439941
18 1 0.671214 0.258397 0.758488
19 1 0.745870 0.518341 0.976554
20 1 0.328283 0.907619 0.500521
21 1 0.049539 0.743715 0.940020
22 1 0.259659 0.340459 0.106452
23 1 0.110170 0.107118 0.587824
24 1 0.788588 0.454185 0.201517
25 1 0.402128 0.360652 0.391225
26 1 0.527286 0.002410 0.391160
27 1 0.861267 0.974411 0.788318
28 1 0.257715 0.250378 0.076211
29 1 0.451646 0.388292 0.617167
30 1 0.508174 0.985253 0.241631
31 1 0.744177 0.678029 0.537056
32 1 0.273291 0.608111 0.146420
33 1 0.821551 0.730939 0.553930
34 1 0.733348 0.284259 0.663172
35 1 0.897162 0.253810 0.255987
36 1 0.726152 0.861432 0.943004
37 1 0.762719 0.675303 0.116649
38 1 0.400448 0.638505 0.419307
39 1 0.894188 0.904735 0.062816
40 1 0.091471 0.962856 0.961590
41 1 0.480575 0.077208 0.435389
42 1 0.685440 0.510625 0.237798
43 1 0.524743 0.745820 0.084414
44 1 0.492581 0.770415 0.811546
45 1 0.837244 0.606081 0.217393
46 1 0.097249 0.935371 0.500963
47 1 0.895744 0.443811 0.321393
48 1 0.427309 0.957259 0.922762
49 1 0.485968 0.759592 0.202574
50 1 0.987971 0.928922 0.397382
51 1 0.543545 0.750753 0.427067
52 1 0.377048 0.962683 0.051964
53 1 0.983600 0.477396 0.801890
54 1 0.423515 0.922806 0.627505
55 1 0.729906 0.259690 0.839731
56 1 0.677004 0.877771 0.852923
57 1 0.932835 0.521939 0.579950
58 1 0.315862 0.111617 0.690893
59 1 0.367142 0.833858 0.449077
60 1 0.080147 0.272887 0.136015
61 1 0.963622 0.894731 0.321741
62 1 0.390093 0.788408 0.221583
63 1 0.959525 0.145900 0.442169
64 1 0.548747 0.646469 0.589076
65 1 0.688549 0.233166 0.478730
66 1 0.635932 0.630888 0.606550
67 1 0.715183 0.762037 0.580372
68 1 0.438612 0.173249 0.544713
69 1 0.401407 0.920379 0.139948
70 1 0.316674 0.700271 0.053242
71 1 0.679733 0.800005 0.914513
72 1 0.079093 0.384864 0.643066
73 1 0.798493 0.679659 0.161297
74 1 0.034678 0.981278 0.358988
75 1 0.532292 0.285265 0.855991
76 1 0.459036 0.554212 0.440978
77 1 0.022471 0.262265 0.069361
78 1 0.520784 0.885318 0.681499
79 1 0.018975 0.831862 0.689676
80 1 0.103123 0.962221 0.698154
81 1 0.039457 0.443859 0.241791
82 1 0.158723 0.509466 0.865226
83 1 0.452639 0.877137 0.358576
84 1 0.230818 0.407104 0.618691
85 1 0.794687 0.014245 0.791029
86 1 0.748231 0.967450 0.741277
87 1 0.454545 0.579190 0.058214
88 1 0.441450 0.117241 0.074648
89 1 0.067705 0.681435 0.364260
90 1 0.238130 0.747359 0.645598
91 1 0.921198 0.080614 0.549805
92 1 0.127080 0.662857 0.749559
93 1 0.310410 0.191025 0.785654
94 1 0.329649 0.465207 0.842493
95 1 0.396666 0.570987 0.454160
96 1 0.122676 0.480284 0.533108
97 1 0.439968 0.980049 0.636692
98 1 0.076702 0.622897 0.643191
99 1 0.303980 0.080991 0.040785
100 1 0.321182 0.151578 0.371735
101 1 0.220298 0.031502 0.563505
102 1 0.608740 0.187413 0.724142
103 1 0.766081 0.025851 0.579025
104 1 0.155265 0.446465 0.344973
105 1 0.779316 0.769836 0.550139
106 1 0.933493 0.320662 0.702048
107 1 0.428346 0.106841 0.304413
108 1 0.653005 0.510515 0.519179
109 1 0.741924 0.794101 0.274230
110 1 0.910456 0.712433 0.367011
111 1 0.825380 0.357334 0.976532
112 1 0.827930 0.944901 0.289968
113 1 0.895551 0.669658 0.664079
114 1 0.357173 0.122507 0.510133
115 1 0.814558 0.517171 0.777693
116 1 0.244638 0.886685 0.731214
117 1 0.913436 0.172265 0.255747
118 1 0.867999 0.302873 0.134238
119 1 0.662481 0.606640 0.532840
120 1 0.992473 0.562691 0.094743
121 1 0.033425 0.601149 0.654166
122 1 0.891881 0.049361 0.615367
123 1 0.742733 0.138421 0.329935
124 1 0.782008 0.255865 0.286999
125 1 0.600891 0.059334 0.786927
126 1 0.254173 0.856265 0.020304
127 1 0.087847 0.179205 0.956605
128 1 0.785783 0.792012 0.167228
129 1 0.113860 0.151721 0.219999
130 1 0.073841 0.972982 0.138141
131 1 0.275411 0.094842 0.396837
132 1 0.855745 0.172187 0.641956
133 1 0.917347 0.118811 0.166188
134 1 0.434951 0.381005 0.019154
135 1 0.278352 0.806634 0.984892
136 1 0.336876 0.994871 0.309238
137 1 0.126651 0.443180 0.081225
138 1 0.933584 0.355663 0.631415
139 1 0.165000 0.198067 0.857869
140 1 0.892240 0.278411 0.609418
141 1 0.430131 0.367738 0.148053
142 1 0.540646 0.912416 0.769027
143 1 0.302643 0.659972 0.704769
144 1 0.643880 0.910061 0.041270
145 1 0.021777 0.619969 0.967006
146 1 0.293019 0.803095 0.643702
147 1 0.461896 0.386830 0.679063
148 1 0.767064 0.317541 0.137917
149 1 0.721898 0.378318 0.682493
150 1 0.331629 0.008240 0.152507
151 1 0.680670 0.864109 0.599090
152 1 0.878967 0.634043 0.411576
153 1 0.669996 0.393881 0.019226
154 1 0.327569 0.179748 0.598699
155 1 0.666968 0.781392 0.031989
156 1 0.884208 0.282543 0.115350
157 1 0.485080 0.549917 0.477066
158 1 0.413184 0.821341 0.999249
159 1 0.512822 0.395966 0.120876
160 1 0.058797 0.784243 0.258762
161 1 0.086242 0.158399 0.915623
162 1 0.661882 0.070770 0.818281
163 1 0.208168 0.132566 0.475698
164 1 0.695643 0.358813 0.578055
165 1 0.510800 0.408404 0.777734
166 1 0.676403 0.385723 0.393040
167 1 0.459677 0.625176 0.971475
168 1 0.980617 0.821437 0.736175
169 1 0.896860 0.799558 0.863432
170 1 0.998453 0.211567 0.741545
171 1 0.145614 0.378562 0.896719
172 1 0.311590 0.306367 0.194584
173 1 0.703877 0.548422 0.385234
174 1 0.007208 0.018057 0.396675
175 1 0.787552 0.740969 0.018071
176 1 0.854286 0.909527 0.813738
177 1 0.902267 0.611959 0.509274
178 1 0.417518 0.229400 0.104641
179 1 0.932170 0.509135 0.757476
180 1 0.393986 0.258600 0.376386
181 1 0.860212 0.287068 0.754324
182 1 0.246645 0.250773 0.044373
183 1 0.571273 0.275084 0.162285
184 1 0.574760 0.098457 0.454276
185 1 0.202973 0.746208 0.589033
186 1 0.551368 0.696724 0.285792
187 1 0.917875 0.592580 0.354287
188 1 0.496530 0.061875 0.779310
189 1 0.791448 0.305553 0.956288
190 1 0.829562 0.920134 0.432516
191 1 0.610649 0.852557 0.432836
192 1 0.285101 0.757305 0.614618
193 1 0.009890 0.311654 0.857418
194 1 0.796206 0.032501 0.809904
195 1 0.969571 0.936248 0.968666
196 1 0.601201 0.899176 0.352196
197 1 0.032983 0.591551 0.121371
198 1 0.667148 0.471363 0.198431
199 1 0.258184 0.792381 0.826851
200 1 0.066556 0.648382 0.760497
201 1 0.215845 0.406442 0.403740
202 1 0.430968 0.237218 0.309188
203 1 0.994540 0.542789 0.928873
204 1 0.198336 0.096491 0.376806
205 1 0.085970 0.963135 0.816048
206 1 0.213813 0.357034 0.212074
207 1 0.773825 0.047178 0.651049
208 1 0.410760 0.258150 0.343054
209 1 0.758274 0.876273 0.031453
210 1 0.184607 0.088998 0.299115
211 1 0.319502 0.562036 0.252757
212 1 0.776579 0.854308 0.364493
213 1 0.720995 0.127277 0.960877
214 1 0.270870 0.639845 0.640580
215 1 0.773338 0.673060 0.103733
216 1 0.729440 0.811960 0.006745
217 1 0.692055 0.253599 0.673559
218 1 0.655508 0.005684 0.891489
219 1 0.120403 0.907295 0.883152
220 1 0.648114 0.009128 0.088902
221 1 0.438766 0.642104 0.785478
222 1 0.304217 0.066500 0.306786
223 1 0.698815 0.873726 0.339305
224 1 0.557038 0.253617 0.980776
225 1 0.214300 0.710855 0.838340
226 1 0.037726 0.068518 0.548181
227 1 0.664327 0.530184 0.190148
228 1 0.599504 0.685331 0.959759
229 1 0.392794 0.117218 0.166699
230 1 0.509199 0.294460 0.141335
231 1 0.233558 0.848113 0.325145
232 1 0.581953 0.963471 0.044782
233 1 0.952452 0.870967 0.541196
234 1 0.354285 0.009487 0.251034
235 1 0.991696 0.616082 0.763009
236 1 0.697595 0.451485 0.447932
237 1 0.560908 0.522740 0.246564
238 1 0.092900 0.162885 0.283741
239 1 0.057222 0.688343 0.647930
240 1 0.900598 0.670312 0.028938
241 1 0.255024 0.191779 0.852443
242 1 0.405094 0.207144 0.542063
243 1 0.293938 0.892735 0.484316
244 1 0.894609 0.979565 0.028704
245 1 0.119004 0.451568 0.462678
246 1 0.524253 0.610540 0.006126
247 1 0.640529 0.444950 0.321587
248 1 0.052696 0.079322 0.357377
249 1 0.364787 0.098878 0.492994
250 1 0.533334 0.727597 0.066632
251 1 0.078933 0.668898 0.166171
252 1 0.446041 0.509079 0.615438
253 1 0.987862 0.856347 0.248604
254 1 0.576047 0.222872 0.147194
255 1 0.910561 0.883476 0.489582
256 1 0.569413 0.274011 0.822659
257 1 0.025966 0.160889 0.562000
258 1 0.962444 0.558187 0.382762
259 1 0.896611 0.701295 0.817245
260 1 0.408890 0.185856 0.174577
261 1 0.355347 0.707761 0.601993
262 1 0.339089 0.663441 0.338688
263 1 0.140586 0.213989 0.058732
264 1 0.224342 0.202213 0.476150
265 1 0.152090 0.412462 0.701553
266 1 0.711695 0.116347 0.973511
267 1 0.693650 0.392158 0.295888
268 1 0.508599 0.292175 0.134258
269 1 0.503508 0.667926 0.041135
270 1 0.806991 0.337855 0.101191
271 1 0.482276 0.177596 0.013666
272 1 0.737252 0.304885 0.343512
273 1 0.915637 0.673029 0.689085
274 1 0.014886 0.506001 0.006917
275 1 0.218299 0.121508 0.066166
276 1 0.679100 0.214951 0.987055
277 1 0.338531 0.720606 0.504996
278 1 0.381316 0.495197 0.286189
279 1 0.521632 0.370067 0.713016
280 1 0.762482 0.647962 0.946324
281 1 0.556463 0.124155 0.677429
282 1 0.117932 0.245110 0.914085
283 1 0.401608 0.707245 0.102895
284 1 0.652610 0.459991 0.665132
285 1 0.387084 0.329429 0.871698
286 1 0.898761 0.181259 0.201390
287 1 0.899862 0.940017 0.759462
288 1 0.262619 0.733178 0.518133
289 1 0.907180 0.063632 0.097046
290 1 0.062998 0.592138 0.658655
291 1 0.383404 0.989778 0.451043
292 1 0.558318 0.751912 0.880583
293 1 0.350366 0.490236 0.198687
294 1 0.260753 0.988145 0.870136
295 1 0.031813 0.762083 0.136682
296 1 0.463746 0.462976 0.294933
297 1 0.507730 0.249392 0.726842
298 1 0.953943 0.578640 0.735392
299 1 0.956876 0.784405 0.094855
300 1 0.512537 0.145830 0.956503
301 1 0.176165 0.301795 0.877830
302 1 0.525271 0.805107 0.224625
303 1 0.697532 0.081022 0.553958
304 1 0.421900 0.275390 0.613960
305 1 0.480835 0.412534 0.279779
306 1 0.888479 0.989311 0.534857
307 1 0.851342 0.506111 0.827559
308 1 0.938773 0.073908 0.121003
309 1 0.780786 0.045082 0.113730
310 1 0.141857 0.123639 0.167260
311 1 0.888246 0.948598 0.564961
312 1 0.390358 0.126022 0.564543
313 1 0.773394 0.641159 0.162679
314 1 0.280014 0.817078 0.404878
315 1 0.941753 0.704953 0.648301
316 1 0.372955 0.376005 0.563240
317 1 0.536736 0.723096 0.958170
318 1 0.880781 0.972176 0.581775
319 1 0.279349 0.899170 0.394764
320 1 0.580750 0.454092 0.133151
321 1 0.173715 0.441025 0.482101
322 1 0.040227 0.600633 0.795151
323 1 0.191047 0.174448 0.641375
324 1 0.084722 0.978536 0.307588
325 1 0.720234 0.398146 0.969418
326 1 0.444664 0.661296 0.061325
327 1 0.019207 0.328574 0.591697
328 1 0.958333 0.214675 0.250802
329 1 0.549106 0.379996 0.570427
330 1 0.302369 0.631932 0.529070
331 1 0.181344 0.760865 0.870986
332 1 0.300248 0.593684 0.905895
333 1 0.069466 0.277544 0.493954
334 1 0.901127 0.448643 0.421870
335 1 0.373740 0.918246 0.032306
336 1 0.819359 0.158853 0.734777
337 1 0.382597 0.329838 0.616520
338 1 0.359015 0.313590 0.199161
339 1 0.867153 0.127071 0.494319
340 1 0.580073 0.424679 0.963836
341 1 0.121874 0.686976 0.435057
342 1 0.934917 0.014374 0.152636
343 1 0.660608 0.609501 0.184098
344 1 0.157681 0.007755 0.527182
345 1 0.627779 0.983511 0.498289
346 1 0.350653 0.247451 0.374698
347 1 0.638152 0.427964 0.739890
348 1 0.265515 0.644801 0.842512
349 1 0.811762 0.749737 0.984178
350 1 0.010623 0.889234 0.550251
351 1 0.015026 0.943568 0.406851
352 1 0.827634 0.170942 0.622441
353 1 0.577380 0.962876 0.508745
354 1 0.233033 0.424288 0.436275
355 1 0.773301 0.053364 0.927781
356 1 0.066417 0.353567 0.340705
357 1 0.142630 0.587918 0.962544
358 1 0.749936 0.202827 0.265917
359 1 0.644764 0.743028 0.867974
360 1 0.628681 0.404467 0.999960
361 1 0.028937 0.088636 0.490870
362 1 0.333231 0.075696 0.598892
363 1 0.644210 0.874758 0.800655
364 1 0.764327 0.941530 0.851664
365 1 0.897055 0.017575 0.150185
366 1 0.682779 0.671554 0.329271
367 1 0.158534 0.229209 0.881164
368 1 0.271899 0.167459 0.617566
369 1 0.296305 0.150500 0.668515
370 1 0.553135 0.472213 0.276390
371 1 0.404852 0.692404 0.942052
372 1 0.479462 0.626783 0.647903
373 1 0.615747 0.779467 0.254915
374 1 0.417176 0.267109 0.024425
375 1 0.665926 0.281563 0.062660
376 1 0.113521 0.620369 0.110066
377 1 0.599647 0.054825 0.038973
378 1 0.559315 0.598081 0.197402
379 1 0.926247 0.236912 0.979505
380 1 0.870733 0.038919 0.499593
381 1 0.150613 0.454135 0.263461
382 1 0.186662 0.782066 0.787006
383 1 0.515181 0.627379 0.547084
384 1 0.638665 0.234705 0.981120
385 1 0.187040 0.359765 0.499811
386 1 0.688688 0.469062 0.193764
387 1 0.862056 0.123951 0.907399
388 1 0.354479 0.761479 0.702420
389 1 0.989255 0.732584 0.333811
390 1 0.732886 0.835140 0.420996
391 1 0.985439 0.892633 0.730229
392 1 0.674666 0.849412 0.698763
393 1 0.548990 0.708584 0.086330
394 1 0.772063 0.027004 0.613520
395 1 0.798496 0.425260 0.416504
396 1 0.530066 0.044057 0.536525
397 1 0.073465 0.638876 0.770491
398 1 0.923220 0.018729 0.357667
399 1 0.421103 0.291447 0.745811
400 1 0.332471 0.689534 0.233019
401 1 0.378578 0.459905 0.052878
402 1 0.547426 0.094019 0.269780
403 1 0.200426 0.510402 0.267893
404 1 0.039961 0.021281 0.449869
405 1 0.189099 0.326221 0.653044
406 1 0.744154 0.601511 0.823688
407 1 0.301181 0.858877 0.489516
408 1 0.167294 0.619985 0.578985
409 1 0.206524 0.341073 0.492006
410 1 0.289987 0.574225 0.490165
411 1 0.395661 0.419232 0.954847
412 1 0.580006 0.605202 0.431686
413 1 0.973393 0.768669 0.187317
414 1 0.045198 0.095564 0.744003
415 1 0.585664 0.797761 0.320552
416 1 0.272521 0.917011 0.605258
417 1 0.564749 0.842809 0.643507
418 1 0.979254 0.487991 0.557062
419 1 0.023873 0.755762 0.110729
420 1 0.345434 0.423455 0.174153
421 1 0.317028 0.295712 0.692753
422 1 0.416516 0.349876 0.586381
423 1 0.124476 0.910698 0.238101
424 1 0.383284 0.111607 0.907989
425 1 0.825031 0.207958 0.238078
426 1 0.873503 0.623227 0.101657
427 1 0.598751 0.761768 0.286465
428 1 0.226632 0.961914 0.764424
429 1 0.463980 0.179305 0.378332
430 1 0.267587 0.349218 0.425282
431 1 0.342558 0.788170 0.302584
432 1 0.770941 0.142303 0.981946
433 1 0.813822 0.002593 0.206226
434 1 0.197506 0.232138 0.533820
435 1 0.208686 0.699131 0.332383
436 1 0.215127 0.366393 0.509251
437 1 0.904294 0.531513 0.620400
438 1 0.384967 0.491314 0.022248
439 1 0.960468 0.652069 0.927187
440 1 0.956920 0.409202 0.043012
441 1 0.538663 0.213226 0.739900
442 1 0.306755 0.044860 0.176011
443 1 0.078478 0.813241 0.988616
444 1 0.820741 0.206009 0.040513
445 1 0.335578 0.687327 0.638213
446 1 0.215044 0.352873 0.704770
447 1 0.192685 0.695736 0.471885
448 1 0.428972 0.019013 0.774330
449 1 0.565742 0.577310 0.183080
450 1 0.958969 0.174290 0.677587
451 1 0.297452 0.470370 0.120097
452 1 0.652256 0.321645 0.736456
453 1 0.489140 0.644449 0.783440
454 1 0.959611 0.457233 0.449636
455 1 0.970511 0.317338 0.773289
456 1 0.242978 0.701140 0.010269
457 1 0.694425 0.577182 0.783837
458 1 0.017912 0.457662 0.595594
459 1 0.804161 0.996837 0.451222
460 1 0.300213 0.903299 0.334629
461 1 0.503152 0.629682 0.716544
462 1 0.386553 0.456282 0.740044
463 1 0.882218 0.415423 0.369398
464 1 0.158753 0.364480 0.992134
465 1 0.981280 0.892923 0.351722
466 1 0.828155 0.381848 0.999816
467 1 0.690805 0.906496 0.766480
468 1 0.010603 0.742684 0.769973
469 1 0.046029 0.106185 0.538396
470 1 0.512093 0.980696 0.599595
471 1 0.991848 0.741920 0.556013
472 1 0.470971 0.504841 0.514936
473 1 0.707448 0.564492 0.596349
474 1 0.413083 0.634527 0.320372
475 1 0.191658 0.281094 0.652796
476 1 0.344491 0.832267 0.258914
477 1 0.946356 0.260060 0.474765
478 1 0.823442 0.617429 0.313878
479 1 0.181198 0.320654 0.823978
480 1 0.068253 0.166987 0.289628
481 1 0.745260 0.435714 0.800960
482 1 0.396122 0.904155 0.956884
483 1 0.198390 0.010817 0.576964
484 1 0.515397 0.674234 0.700038
485 1 0.948896 0.980247 0.735067
486 1 0.797519 0.109799 0.385931
487 1 0.759439 0.274028 0.915540
488 1 0.660000 0.581250 0.975888
489 1 0.390270 0.756622 0.312678
490 1 0.425920 0.194702 0.314290
491 1 0.359983 0.821367 0.158771
492 1 0.233669 0.124215 0.378047
493 1 0.437677 0.469779 0.697144
494 1 0.635308 0.566163 0.857790
495 1 0.354364 0.293425 0.951936
496 1 0.633012 0.723044 0.538132
497 1 0.260323 0.452572 0.488318
498 1 0.013747 0.876482 0.309132
499 1 0.984272 0.945178 0.368176
500 1 0.438982 0.046431 0.839254
501 1 0.742433 0.361476 0.324932
502 1 0.107303 0.991326 0.101566
503 1 0.144173 0.190246 0.870436
504 1 0.828403 0.215212 0.163462
505 1 0.486087 0.338109 0.195647
506 1 0.529278 0.327578 0.306977
507 1 0.204028 0.778829 0.187102
508 1 0.613281 0.477367 0.708091
509 1 0.120997 0.029166 0.000546
510 1 0.667180 0.767688 0.379662
511 1 0.077636 0.084806 0.233310
512 1 0.290582 0.412264 0.287940
513 1 0.115905 0.383320 0.824986
514 1 0.784119 0.333256 0.622319
515 1 0.639866 0.073449 0.267725
516 1 0.313245 0.364850 0.181658
517 1 0.135567 0.711759 0.739154
518 1 0.257862 0.236716 0.480821
519 1 0.095164 0.395200 0.190979
520 1 0.484150 0.876656 0.104450
521 1 0.095219 0.474244 0.469611
522 1 0.571411 0.099357 0.713483
523 1 0.541931 0.848913 0.081740
524 1 0.830212 0.062253 0.454424
525 1 0.680744 0.967561 0.747049
526 1 0.228239 0.046676 0.593773
527 1 0.283450 0.848219 0.819594
528 1 0.180517 0.550769 0.390903
529 1 0.364683 0.156714 0.779984
530 1 0.174613 0.509669 0.139440
531 1 0.133030 0.619534 0.936943
532 1 0.983271 0.711995 0.179796
533 1 0.252925 0.366509 0.717877
534 1 0.870290 0.931533 0.411463
535 1 0.924683 0.134011 0.033911
536 1 0.543229 0.160974 0.066111
537 1 0.016678 0.253642 0.117320
538 1 0.532411 0.172153 0.579711
539 1 0.130050 0.027950 0.701609
540 1 0.654676 0.488807 0.215975
541 1 0.406893 0.753024 0.084886
542 1 0.573713 0.964620 0.909910
543 1 0.808693 0.207958 0.613890
544 1 0.760459 0.724910 0.584103
545 1 0.769982 0.649133 0.554787
546 1 0.804332 0.675797 0.823234
547 1 0.126963 0.154288 0.643659
548 1 0.060940 0.108396 0.551477
549 1 0.722227 0.125527 0.065375
550 1 0.201648 0.713865 0.463890
551 1 0.669470 0.885820 0.370158
552 1 0.573871 0.041891 0.880317
553 1 0.289415 0.344625 0.803670
554 1 0.400533 0.661277 0.169796
555 1 0.819435 0.258963 0.421413
556 1 0.554901 0.229586 0.747792
557 1 0.423200 0.144562 0.845592
558 1 0.780782 0.042555 0.882053
559 1 0.863016 0.600478 0.956043
560 1 0.682754 0.997736 0.373458
561 1 0.699496 0.486877 0.380123
562 1 0.560625 0.948549 0.401035
563 1 0.698929 0.643590 0.319354
564 1 0.806409 0.941900 0.685705
565 1 0.471233 0.293114 0.163455
566 1 0.969572 0.844924 0.690641
567 1 0.848702 0.369824 0.553334
568 1 0.970561 0.155619 0.053545
569 1 0.571586 0.264790 0.794387
570 1 0.136705 0.820874 0.690713
571 1 0.219664 0.266969 0.882930
572 1 0.655604 0.893470 0.951468
573 1 0.690203 0.208054 0.864292
574 1 0.038669 0.291066 0.799921
575 1 0.413384 0.605810 0.948924
576 1 0.238580 0.707771 0.354291
577 1 0.667809 0.536860 0.889782
578 1 0.874431 0.408809 0.935667
579 1 0.915792 0.888019 0.021500
580 1 0.796773 0.151673 0.129591
581 1 0.702640 0.748749 0.779397
582 1 0.882276 0.907147 0.344626
583 1 0.977442 0.006637 0.436078
584 1 0.947798 0.822429 0.661114
585 1 0.427449 0.409497 0.365436
586 1 0.185920 0.597442 0.514758
587 1 0.378533 0.662280 0.614268
588 1 0.099634 0.283435 0.492116
589 1 0.534888 0.215091 0.604169
590 1 0.505149 0.510457 0.710543
591 1 0.139959 0.276057 0.040297
592 1 0.480441 0.281687 0.738588
593 1 0.865268 0.830425 0.333335
594 1 0.049532 0.896260 0.424721
595 1 0.539958 0.816270 0.227805
596 1 0.684347 0.315347 0.321311
597 1 0.024551 0.314160 0.672406
598 1 0.023720 0.895912 0.193185
599 1 0.941889 0.098315 0.133550
600 1 0.503673 0.874383 0.496264
601 1 0.478783 0.106900 0.762977
602 1 0.466921 0.848686 0.556543
603 1 0.167887 0.037454 0.753440
604 1 0.108685 0.997279 0.394270
605 1 0.706467 0.298666 0.339241
606 1 0.712370 0.727230 0.417658
607 1 0.773023 0.101778 0.833061
608 1 0.162147 0.254950 0.207208
609 1 0.460430 0.018775 0.793504
610 1 0.447020 0.414361 0.241875
611 1 0.667795 0.090761 0.505068
612 1 0.022971 0.656799 0.387521
613 1 0.663515 0.411443 0.700400
614 1 0.905471 0.667326 0.289478
615 1 0.696020 0.217379 0.456062
616 1 0.827592 0.138317 0.084210
617 1 0.116671 0.988166 0.937158
618 1 0.590806 0.750576 0.732399
619 1 0.448441 0.158152 0.746933
620 1 0.394656 0.979529 0.750658
621 1 0.194564 0.165951 0.487042
622 1 0.895919 0.231387 0.597059
623 1 0.573975 0.724979 0.627980
624 1 0.221372 0.915220 0.490873
625 1 0.165452 0.554019 0.076175
626 1 0.288412 0.545710 0.604639
627 1 0.993010 0.256218 0.681888
628 1 0.396932 0.424100 0.146979
629 1 0.661004 0.540606 0.144404
630 1 0.519360 0.261854 0.246902
631 1 0.462663 0.251488 0.512208
632 1 0.004157 0.992996 0.103013
633 1 0.031379 0.190189 0.065659
634 1 0.691738 0.528338 0.606644
635 1 0.485670 0.088199 0.943516
636 1 0.703212 0.613247 0.507372
637 1 0.794901 0.006159 0.499083
638 1 0.743263 0.838307 0.770255
639 1 0.320946 0.751538 0.769619
640 1 0.405103 0.229294 0.755629
641 1 0.708457 0.408931 0.153727
642 1 0.628550 0.909159 0.630524
643 1 0.293335 0.928811 0.616448
644 1 0.691382 0.084995 0.851952
645 1 0.979938 0.419871 0.093388
646 1 0.148386 0.316222 0.061724
647 1 0.385934 0.540236 0.595106
648 1 0.078764 0.272380 0.900860
649 1 0.112929 0.474107 0.766511
650 1 0.519777 0.249839 0.619956
651 1 0.272023 0.886022 0.046757
652 1 0.404831 0.149075 0.548242
653 1 0.297774 0.065809 0.578571
654 1 0.674525 0.096085 0.878341
655 1 0.565660 0.621631 0.968519
656 1 0.079351 0.767300 0.690077
657 1 0.177361 0.265567 0.390783
658 1 0.291052 0.906396 0.642790
659 1 0.749283 0.718644 0.883552
660 1 0.477979 0.546986 0.721980
661 1 0.628850 0.694333 0.990907
662 1 0.218580 0.780676 0.143528
663 1 0.314298 0.741863 0.591847
664 1 0.342840 0.502041 0.096671
665 1 0.805822 0.522227 0.356650
666 1 0.137187 0.864160 0.550914
667 1 0.714340 0.250755 0.669193
668 1 0.284852 0.642247 0.783295
669 1 0.130944 0.132075 0.763197
670 1 0.831580 0.802315 0.815749
671 1 0.405513 0.284539 0.960351
672 1 0.324466 0.453455 0.405181
673 1 0.236919 0.813341 0.794529
674 1 0.862240 0.242968 0.826318
675 1 0.548627 0.370138 0.855053
676 1 0.307667 0.964670 0.873304
677 1 0.159026 0.216657 0.068603
678 1 0.389816 0.266768 0.017459
679 1 0.490334 0.892788 0.830957
680 1 0.833407 0.387405 0.561421
681 1 0.491518 0.165618 0.420863
682 1 0.160116 0.302931 0.432817
683 1 0.851735 0.040579 0.621169
684 1 0.356692 0.594142 0.314188
685 1 0.321326 0.019234 0.614628
686 1 0.852463 0.822668 0.732604
687 1 0.972330 0.557976 0.444874
688 1 0.128467 0.258137 0.648266
689 1 0.598246 0.427986 0.177473
690 1 0.822091 0.726189 0.938815
691 1 0.020554 0.429197 0.356529
692 1 0.135016 0.719956 0.189935
693 1 0.224668 0.318485 0.748285
694 1 0.805637 0.166025 0.897668
695 1 0.201700 0.041584 0.347333
696 1 0.180788 0.367418 0.623251
697 1 0.224894 0.670599 0.579146
698 1 0.551344 0.496832 0.803416
699 1 0.627616 0.646279 0.363051
700 1 0.506149 0.834962 0.219737
701 1 0.520962 0.037819 0.552871
702 1 0.652033 0.509602 0.464439
703 1 0.254844 0.268034 0.313110
704 1 0.745669 0.829186 0.825771
705 1 0.599902 0.108828 0.531075
706 1 0.707294 0.489174 0.759924
707 1 0.974243 0.475023 0.646687
708 1 0.827715 0.203148 0.814160
709 1 0.527279 0.433913 0.543963
710 1 0.379825 0.588318 0.000856
711 1 0.770731 0.453268 0.915840
712 1 0.188250 0.829464 0.806861
713 1 0.690909 0.920272 0.796987
714 1 0.343535 0.861747 0.693128
715 1 0.031581 0.986999 0.918574
716 1 0.270411 0.247979 0.576451
717 1 0.600587 0.919582 0.389978
718 1 0.971645 0.665724 0.125242
719 1 0.779104 0.752129 0.897789
720 1 0.208835 0.410477 0.145251
721 1 0.867890 0.542242 0.527614
722 1 0.496138 0.730101 0.898817
723 1 0.867325 0.567560 0.336635
724 1 0.014467 0.735815 0.191525
725 1 0.114349 0.144260 0.844438
726 1 0.562748 0.762035 0.757566
727 1 0.877470 0.887479 0.406481
728 1 0.599782 0.110699 0.779043
729 1 0.491662 0.313146 0.258684
730 1 0.544193 0.986805 0.316058
731 1 0.067174 0.626425 0.481948
732 1 0.079721 0.778193 0.138859
733 1 0.038936 0.789112 0.193036
734 1 0.236913 0.524526 0.178057
735 1 0.831390 0.518370 0.940910
736 1 0.582994 0.299492 0.751887
737 1 0.807886 0.861505 0.629917
738 1 0.588762 0.256922 0.724578
739 1 0.909711 0.986944 0.303886
740 1 0.348666 0.084273 0.743266
741 1 0.619715 0.335163 0.302837
742 1 0.878409 0.890351 0.784536
743 1 0.544409 0.777910 0.710373
744 1 0.224328 0.207383 0.588578
745 1 0.037966 0.066473 0.466993
746 1 0.857347 0.499087 0.856181
747 1 0.277411 0.684443 0.163468
748 1 0.844679 0.166389 0.681493
749 1 0.356139 0.728726 0.216857
750 1 0.756154 0.518878 0.672318
751 1 0.130866 0.551977 0.847815
752 1 0.520054 0.542861 0.673281
753 1 0.757984 0.148679 0.250537
754 1 0.412615 0.190806 0.678673
755 1 0.796948 0.645065 0.994245
756 1 0.947929 0.532508 0.058156
757 1 0.159989 0.403849 0.974185
758 1 0.603955 0.091992 0.252932
759 1 0.955757 0.103103 0.016165
760 1 0.822376 0.630187 0.085037
761 1 0.344527 0.383991 0.598711
762 1 0.895060 0.084086 0.525175
763 1 0.323475 0.523276 0.410603
764 1 0.370869 0.638215 0.334194
765 1 0.833742 0.229694 0.541592
766 1 0.212309 0.540989 0.103426
767 1 0.200421 0.538427 0.773452
768 1 0.781612 0.962818 0.357339
769 1 0.476629 0.188123 0.956683
770 1 0.959983 0.580000 0.288099
771 1 0.855886 0.960239 0.140946
772 1 0.123883 0.042753 0.725196
773 1 0.326075 0.618255 0.732773
774 1 0.544910 0.498015 0.536496
775 1 0.425020 0.763898 0.105450
776 1 0.717186 0.813321 0.141507
777 1 0.406447 0.029148 0.591696
778 1 0.851775 0.643431 0.365201
779 1 0.895332 0.333843 0.445429
780 1 0.084304 0.085236 0.370342
781 1 0.855473 0.156782 0.505156
782 1 0.834576 0.338390 0.720150
783 1 0.246014 0.548060 0.037668
784 1 0.289674 0.840976 0.148592
785 1 0.619980 0.254027 0.416708
786 1 0.889865 0.876656 0.471722
787 1 0.673942 0.540802 0.598260
788 1 0.647165 0.061305 0.538513
789 1 0.091676 0.913119 0.925753
790 1 0.803845 0.408359 0.770984
791 1 0.764901 0.683018 0.285947
792 1 0.654297 0.998443 0.482417
793 1 0.189556 0.900252 0.758727
794 1 0.247155 0.273010 0.831582
795 1 0.369223 0.022233 0.302838
796 1 0.948430 0.724198 0.124697
797 1 0.192219 0.606594 0.281939
798 1 0.666128 0.489022 0.444998
799 1 0.226852 0.995948 0.048817
800 1 0.111647 0.065697 0.553769
801 1 0.579696 0.133758 0.387076
802 1 0.067930 0.391071 0.234725
803 1 0.317336 0.061017 0.382056
804 1 0.976935 0.005095 0.009868
805 1 0.048171 0.972074 0.316967
806 1 0.233071 0.902606 0.117091
807 1 0.026804 0.455600 0.350928
808 1 0.518517 0.783854 0.813903
809 1 0.437852 0.285016 0.938063
810 1 0.537013 0.922610 0.017764
811 1 0.245320 0.361474 0.217210
812 1 0.627556 0.310820 0.519842
813 1 0.358458 0.709006 0.351526
814 1 0.833760 0.266509 0.935614
815 1 0.317150 0.765128 0.801736
816 1 0.513112 0.883839 0.764342
817 1 0.365579 0.326168 0.871420
818 1 0.680747 0.727114 0.488989
819 1 0.823833 0.134652 0.098816
820 1 0.250716 0.065365 0.934084
821 1 0.491842 0.363919 0.016549
822 1 0.004953 0.251935 0.166037
823 1 0.957839 0.122584 0.010441
824 1 0.073521 0.817587 0.815740
825 1 0.007426 0.470857 0.587251
826 1 0.040613 0.841093 0.439856
827 1 0.580716 0.958593 0.362490
828 1 0.474191 0.712913 0.922519
829 1 0.630674 0.277807 0.079630
830 1 0.170295 0.523974 0.490284
831 1 0.468588 0.240557 0.882286
832 1 0.648434 0.065159 0.677977
833 1 0.048720 0.989988 0.000625
834 1 0.023074 0.591510 0.542160
835 1 0.949188 0.487407 0.842048
836 1 0.814503 0.947090 0.088651
837 1 0.080627 0.183550 0.089527
838 1 0.821800 0.150523 0.734892
839 1 0.559283 0.810467 0.711482
840 1 0.373716 0.211645 0.064902
841 1 0.940061 0.163115 0.731206
842 1 0.817953 0.175060 0.614263
843 1 0.956098 0.377804 0.952985
844 1 0.707892 0.609240 0.274181
845 1 0.760438 0.543489 0.566794
846 1 0.658348 0.215317 0.861166
847 1 0.832807 0.725663 0.474132
848 1 0.430364 0.339698 0.849426
849 1 0.024154 0.828394 0.505320
850 1 0.991413 0.899759 0.496195
851 1 0.134724 0.175613 0.624778
852 1 0.094348 0.065696 0.164523
853 1 0.208680 0.091764 0.796280
854 1 0.766885 0.689071 0.000616
855 1 0.935133 0.929015 0.806875
856 1 0.098262 0.309047 0.175878
857 1 0.081172 0.865325 0.268081
858 1 0.475231 0.842479 0.013352
859 1 0.248369 0.489831 0.658591
860 1 0.157817 0.206285 0.390368
861 1 0.297276 0.664259 0.813801
862 1 0.732378 0.079624 0.084778
863 1 0.619983 0.080776 0.782513
864 1 0.673827 0.214239 0.826687
865 1 0.114319 0.026171 0.259185
866 1 0.465013 0.739502 0.824308
867 1 0.335784 0.262169 0.972354
868 1 0.892143 0.744758 0.657464
869 1 0.891305 0.955313 0.035533
870 1 0.457176 0.760072 0.027722
871 1 0.793347 0.866755 0.463554
872 1 0.612356 0.051986 0.375349
873 1 0.465165 0.784788 0.028989
874 1 0.733797 0.508921 0.978537
875 1 0.108232 0.460824 0.304074
876 1 0.054196 0.752390 0.584730
877 1 0.534128 0.696552 0.483816
878 1 0.510064 0.642181 0.027874
879 1 0.933049 0.908275 0.550128
880 1 0.184193 0.282280 0.411835
881 1 0.797708 0.812386 0.493198
882 1 0.825729 0.248307 0.898286
883 1 0.082091 0.919424 0.564373
884 1 0.349407 0.211794 0.634942
885 1 0.727154 0.061805 0.451048
886 1 0.746912 0.878544 0.758851
887 1 0.394141 0.256263 0.186884
888 1 0.395455 0.564348 0.559457
889 1 0.100112 0.085758 0.932886
890 1 0.703426 0.490526 0.159332
891 1 0.261716 0.512362 0.846710
892 1 0.598918 0.718278 0.170198
893 1 0.235073 0.320949 0.340752
894 1 0.732042 0.165021 0.821211
895 1 0.134240 0.187592 0.828438
896 1 0.301458 0.110630 0.353190
897 1 0.206556 0.649499 0.126044
898 1 0.038569 0.049670 0.141420
899 1 0.668238 0.968484 0.085069
900 1 0.807235 0.848452 0.007149
901 1 0.769801 0.571799 0.456928
902 1 0.326688 0.960635 0.866833
903 1 0.446464 0.543501 0.905395
904 1 0.253522 0.212224 0.208210
905 1 0.408021 0.750065 0.517757
906 1 0.359438 0.159326 0.684046
907 1 0.608615 0.342603 0.339772
908 1 0.533189 0.047172 0.899600