ITEM: TIMESTEP
0
ITEM: NUMBER OF ATOMS
100000
ITEM: BOX BOUNDS pp pp pp
0.0 69.623833
0.0 69.623833
0.0 69.623833
ITEM: ATOMS id type xs ys zs
1 1 0.104283 0.799454 0.893564
2 1 0.119119 0.021121 0.616626
3 1 0.822842 0.566038 0.088556
4 1 0.383343 0.707605 0.333318
5 1 0.189325 0.111589 0.224440
6 1 0.106602 0.662084 0.270012
7 1 0.147702 0.892205 0.095777
8 1 0.548205 0.332215 0.826028
9 1 0.289177 0.282255 0.142259
10 1 0.323054 0.638343 0.428104
11 1 0.731454 0.477067 0.878674
12 1 0.457733 0.844206 0.828377
13 1 0.443486 0.851639 0.717663
14 1 0.465098 0.240907 0.691272
15 1 0.708902 0.677685 0.592555
16 1 0.151593 0.843518 0.908338
17 1 0.774691 0.655109 0.288672
18 1 0.235979 0.198270 0.910435
19 1 0.759882 0.519974 0.549668
20 1 0.341282 0.855347 0.536950
21 1 0.412572 0.933953 0.690818
22 1 0.188665 0.255985 0.394030
23 1 0.275698 0.701180 0.226672
24 1 0.634082 0.181339 0.450907
25 1 0.222247 0.804047 0.472016
26 1 0.436208 0.147089 0.955715
27 1 0.333962 0.774237 0.120210
28 1 0.621172 0.571384 0.835783
29 1 0.902261 0.325411 0.622962
30 1 0.562414 0.986866 0.136559
31 1 0.346077 0.789006 0.469707
32 1 0.195149 0.148244 0.875578
33 1 0.780936 0.261581 0.504955
34 1 0.763077 0.141147 0.740849
35 1 0.156339 0.362961 0.634167
36 1 0.224441 0.583106 0.979296
37 1 0.021867 0.623268 0.931434
38 1 0.664344 0.481729 0.812618
39 1 0.503686 0.943841 0.584880
40 1 0.562126 0.513331 0.011623
41 1 0.844536 0.587414 0.701957
42 1 0.056083 0.646557 0.492488
43 1 0.758503 0.450498 0.572434
44 1 0.288229 0.654411 0.678124
45 1 0.232997 0.221150 0.266741
46 1 0.155962 0.721829 0.249497
47 1 0.406397 0.295831 0.371043
48 1 0.773131 0.905448 0.342320
49 1 0.498723 0.815689 0.191507
50 1 0.832786 0.573110 0.681552
51 1 0.691406 0.928715 0.141393
52 1 0.386353 0.323165 0.633207
53 1 0.654367 0.670534 0.265631
54 1 0.144837 0.380938 0.161979
55 1 0.707292 0.707509 0.939847
56 1 0.967120 0.191598 0.880253
57 1 0.496955 0.508219 0.803369
58 1 0.874364 0.570842 0.131171
59 1 0.022049 0.948490 0.776772
60 1 0.598042 0.285132 0.825424
61 1 0.866647 0.041740 0.459425
62 1 0.759672 0.799426 0.117634
63 1 0.697525 0.345214 0.453184
64 1 0.038492 0.270107 0.912622
65 1 0.828185 0.144451 0.339714
66 1 0.018380 0.124282 0.300015
67 1 0.100501 0.009976 0.567787
68 1 0.089323 0.736621 0.286437
69 1 0.297011 0.572030 0.846462
70 1 0.235670 0.676606 0.948079
71 1 0.520100 0.084466 0.042689
72 1 0.497578 0.213503 0.438900
73 1 0.654000 0.947904 0.058229
74 1 0.983432 0.302813 0.971369
75 1 0.587018 0.253403 0.922226
76 1 0.586526 0.014732 0.131051
77 1 0.391791 0.677317 0.417686
78 1 0.932841 0.219217 0.560462
79 1 0.086946 0.887572 0.089652
80 1 0.593873 0.952443 0.856928
81 1 0.185970 0.779848 0.691368
82 1 0.540680 0.601823 0.666322
83 1 0.340901 0.469797 0.797549
84 1 0.323187 0.210518 0.982459
85 1 0.799811 0.969701 0.431640
86 1 0.353139 0.019883 0.885656
87 1 0.167792 0.711755 0.105133
88 1 0.818917 0.102981 0.995363
89 1 0.292129 0.762580 0.506595
90 1 0.106355 0.424176 0.786565
91 1 0.812218 0.661716 0.851730
92 1 0.087535 0.178437 0.523091
93 1 0.744704 0.365785 0.746439
94 1 0.364099 0.184150 0.907359
95 1 0.184276 0.210456 0.466779
96 1 0.447284 0.219366 0.358525
97 1 0.982041 0.567693 0.883632
98 1 0.720464 0.847519 0.512969
99 1 0.985440 0.167281 0.486641
100 1 0.968294 0.063283 0.518689
101 1 0.877392 0.243805 0.358294
102 1 0.784470 0.528497 0.207373
103 1 0.230143 0.007596 0.836681
104 1 0.506339 0.648932 0.056108
105 1 0.872592 0.030274 0.597925
106 1 0.062821 0.319222 0.029343
107 1 0.195487 0.532356 0.829007
108 1 0.808037 0.793645 0.336909
109 1 0.290707 0.954380 0.127818
110 1 0.115788 0.997561 0.572040
111 1 0.623542 0.529139 0.661738
112 1 0.798296 0.125798 0.080560
113 1 0.601820 0.062407 0.603309
114 1 0.344030 0.285985 0.231331
115 1 0.800468 0.210081 0.989194
116 1 0.131719 0.534196 0.354056
117 1 0.146763 0.309907 0.574417
118 1 0.715945 0.428710 0.761269
119 1 0.057194 0.400968 0.764030
120 1 0.024959 0.171720 0.884989
121 1 0.828532 0.492768 0.766458
122 1 0.556235 0.194294 0.426751
123 1 0.970746 0.103267 0.026823
124 1 0.820526 0.324982 0.866452
125 1 0.745522 0.890791 0.476171
126 1 0.713428 0.746177 0.629660
127 1 0.433349 0.249922 0.518155
128 1 0.443518 0.132267 0.074882
129 1 0.239437 0.599921 0.658678
130 1 0.901665 0.161543 0.147105
131 1 0.428153 0.608818 0.055714
132 1 0.932793 0.333818 0.136444
133 1 0.760495 0.706191 0.140260
134 1 0.147407 0.532772 0.869604
135 1 0.921880 0.505819 0.123274
136 1 0.190949 0.784671 0.551547
137 1 0.638447 0.219812 0.729119
138 1 0.149948 0.410958 0.584108
139 1 0.662457 0.531721 0.176377
140 1 0.478108 0.929593 0.899687
141 1 0.889519 0.797683 0.547227
142 1 0.855441 0.242512 0.446630
143 1 0.009638 0.329484 0.544286
144 1 0.732363 0.965848 0.949368
145 1 0.802138 0.262909 0.021373
146 1 0.588362 0.927312 0.697785
147 1 0.327983 0.529314 0.209958
148 1 0.834065 0.184497 0.379395
149 1 0.286975 0.799075 0.553371
150 1 0.905924 0.598676 0.176953
151 1 0.404521 0.861534 0.344900
152 1 0.601230 0.568491 0.370861
153 1 0.165790 0.979593 0.140207
154 1 0.940946 0.060742 0.259031
155 1 0.356704 0.470639 0.615637
156 1 0.087435 0.388974 0.849905
157 1 0.199444 0.510611 0.368651
158 1 0.708167 0.325490 0.749340
159 1 0.815203 0.846865 0.566900
160 1 0.127014 0.134323 0.829846
161 1 0.443011 0.425560 0.269243
162 1 0.520544 0.938880 0.690237
163 1 0.195851 0.503609 0.946106
164 1 0.830910 0.373511 0.059123
165 1 0.808008 0.361929 0.938535
166 1 0.386963 0.300564 0.431677
167 1 0.149881 0.990161 0.618885
168 1 0.431922 0.213741 0.253741
169 1 0.251967 0.533376 0.984881
170 1 0.910408 0.210787 0.834684
171 1 0.236222 0.121128 0.087959
172 1 0.305112 0.688162 0.916711
173 1 0.838120 0.348411 0.757534
174 1 0.451273 0.312342 0.177635
175 1 0.452320 0.248618 0.510159
176 1 0.783160 0.222271 0.441581
177 1 0.288386 0.686035 0.383127
178 1 0.236240 0.709142 0.108010
179 1 0.753187 0.951680 0.058531
180 1 0.929665 0.294917 0.775433
181 1 0.170264 0.740085 0.929722
182 1 0.457569 0.497419 0.561433
183 1 0.525344 0.193087 0.376981
184 1 0.797826 0.003609 0.095676
185 1 0.648122 0.590277 0.684708
186 1 0.708245 0.063505 0.301098
187 1 0.349353 0.987051 0.941335
188 1 0.099857 0.662691 0.777841
189 1 0.713961 0.820596 0.649152
190 1 0.073906 0.486114 0.356179
191 1 0.229193 0.210591 0.091795
192 1 0.322109 0.251021 0.281503
193 1 0.973122 0.385205 0.807162
194 1 0.082728 0.118046 0.566325
195 1 0.980065 0.039551 0.592285
196 1 0.243363 0.806252 0.671770
197 1 0.654681 0.305938 0.362621
198 1 0.254851 0.755867 0.203144
199 1 0.170558 0.905549 0.055355
200 1 0.261905 0.516137 0.600477
201 1 0.343482 0.856834 0.411816
202 1 0.611210 0.267222 0.803282
203 1 0.227938 0.612072 0.105107
204 1 0.737305 0.478716 0.317197
205 1 0.854914 0.216708 0.238112
206 1 0.935375 0.532513 0.602215
207 1 0.114085 0.833863 0.775877
208 1 0.520266 0.688182 0.124350
209 1 0.817122 0.218924 0.067186
210 1 0.866936 0.972437 0.682639
211 1 0.764132 0.595922 0.939859
212 1 0.803978 0.113606 0.054660
213 1 0.125855 0.192461 0.133463
214 1 0.999594 0.029027 0.433198
215 1 0.920520 0.747250 0.089726
216 1 0.902077 0.849170 0.181661
217 1 0.673272 0.897870 0.486739
218 1 0.290090 0.068860 0.173222
219 1 0.421681 0.616840 0.801358
220 1 0.768154 0.170397 0.429204
221 1 0.013743 0.785449 0.876096
222 1 0.907026 0.930668 0.180131
223 1 0.340325 0.055382 0.133126
224 1 0.902972 0.187830 0.779504
225 1 0.350267 0.588808 0.630751
226 1 0.028524 0.967890 0.623034
227 1 0.698225 0.473387 0.611873
228 1 0.550666 0.762418 0.825558
229 1 0.212449 0.089254 0.375954
230 1 0.764621 0.479152 0.121517
231 1 0.130775 0.964263 0.920968
232 1 0.227011 0.427822 0.310610
233 1 0.663785 0.450606 0.408289
234 1 0.618558 0.280199 0.324554
235 1 0.948504 0.976977 0.665887
236 1 0.227043 0.092539 0.914730
237 1 0.805960 0.669834 0.230785
238 1 0.016716 0.439033 0.229264
239 1 0.107234 0.040418 0.994462
240 1 0.287272 0.296784 0.066945
241 1 0.283704 0.295366 0.709819
242 1 0.766378 0.807966 0.718327
243 1 0.707158 0.202234 0.561229
244 1 0.775340 0.217998 0.421184
245 1 0.645779 0.464868 0.758214
246 1 0.373330 0.783595 0.103274
247 1 0.002149 0.244553 0.398464
248 1 0.680452 0.225335 0.158993
249 1 0.772518 0.782802 0.191915
250 1 0.281434 0.566740 0.110236
251 1 0.646616 0.338165 0.810920
252 1 0.323440 0.927433 0.566177
253 1 0.321752 0.158708 0.362823
254 1 0.354116 0.568965 0.236136
255 1 0.090872 0.681015 0.334053
256 1 0.151150 0.645666 0.059611
257 1 0.445861 0.727323 0.998820
258 1 0.312303 0.515043 0.515855
259 1 0.003302 0.038644 0.830904
260 1 0.643170 0.181756 0.653132
261 1 0.679980 0.684754 0.090805
262 1 0.362385 0.336914 0.525944
263 1 0.130019 0.014398 0.315749
264 1 0.410039 0.653676 0.524401
265 1 0.813305 0.003049 0.832266
266 1 0.955177 0.025430 0.619779
267 1 0.225656 0.621243 0.663709
268 1 0.268793 0.134387 0.922218
269 1 0.324017 0.656593 0.991035
270 1 0.401603 0.389005 0.394056
271 1 0.656501 0.565053 0.275673
272 1 0.163114 0.121272 0.286170
273 1 0.721771 0.300159 0.199086
274 1 0.630902 0.144707 0.748693
275 1 0.503233 0.155180 0.580188
276 1 0.848683 0.712494 0.155912
277 1 0.092784 0.831342 0.905651
278 1 0.048960 0.019127 0.544397
279 1 0.620031 0.275805 0.369895
280 1 0.077664 0.910573 0.794664
281 1 0.772133 0.019066 0.769442
282 1 0.106819 0.125013 0.973140
283 1 0.003890 0.842820 0.499118
284 1 0.823860 0.952106 0.353192
285 1 0.271084 0.077725 0.732258
286 1 0.968722 0.113813 0.226598
287 1 0.431549 0.654718 0.894166
288 1 0.261141 0.153550 0.187555
289 1 0.048642 0.367224 0.481470
290 1 0.260804 0.043314 0.874606
291 1 0.291772 0.321638 0.996034
292 1 0.865633 0.364656 0.093399
293 1 0.601510 0.657340 0.626228
294 1 0.505575 0.657469 0.042074
295 1 0.817457 0.609533 0.925775
296 1 0.907585 0.618953 0.725958
297 1 0.459152 0.051151 0.958672
298 1 0.407028 0.973395 0.584827
299 1 0.058104 0.536363 0.330302
300 1 0.609779 0.520585 0.455795
301 1 0.485525 0.183556 0.340553
302 1 0.565799 0.926019 0.629609
303 1 0.647628 0.002977 0.886622
304 1 0.444705 0.461902 0.271390
305 1 0.812030 0.731792 0.310525
306 1 0.831339 0.290421 0.654368
307 1 0.882355 0.961095 0.337800
308 1 0.874077 0.056876 0.899100
309 1 0.452760 0.087879 0.685869
310 1 0.836724 0.016799 0.165919
311 1 0.550187 0.216358 0.853802
312 1 0.174119 0.995674 0.392150
313 1 0.706227 0.515685 0.180547
314 1 0.695350 0.374939 0.221896
315 1 0.981308 0.610762 0.633242
316 1 0.657188 0.018680 0.333938
317 1 0.317308 0.267780 0.769990
318 1 0.314937 0.118095 0.665777
319 1 0.880084 0.675611 0.665084
320 1 0.386053 0.369130 0.141511
321 1 0.962906 0.424495 0.167313
322 1 0.563068 0.716606 0.453679
323 1 0.199164 0.412824 0.089183
324 1 0.046894 0.357305 0.116921
325 1 0.054707 0.408119 0.235345
326 1 0.790497 0.965420 0.696902
327 1 0.763278 0.995434 0.608881
328 1 0.500703 0.067916 0.586717
329 1 0.437494 0.002209 0.166993
330 1 0.319105 0.815253 0.378898
331 1 0.500523 0.535985 0.267528
332 1 0.654005 0.552745 0.003858
333 1 0.800788 0.871306 0.922016
334 1 0.671366 0.400756 0.934431
335 1 0.426524 0.763991 0.706826
336 1 0.131094 0.970343 0.761025
337 1 0.618665 0.173308 0.774102
338 1 0.035928 0.293621 0.544092
339 1 0.378129 0.732454 0.353560
340 1 0.838377 0.677113 0.761685
341 1 0.064872 0.613784 0.541209
342 1 0.095466 0.469470 0.206197
343 1 0.211256 0.327020 0.502278
344 1 0.469176 0.508997 0.324249
345 1 0.764126 0.137473 0.310061
346 1 0.269775 0.991038 0.033443
347 1 0.524139 0.614179 0.450724
348 1 0.188695 0.057382 0.784093
349 1 0.207731 0.196287 0.623800
350 1 0.687160 0.091495 0.851304
351 1 0.453460 0.821032 0.037406
352 1 0.558688 0.331893 0.340868
353 1 0.451620 0.621599 0.431653
354 1 0.145887 0.670972 0.677097
355 1 0.967064 0.566798 0.392687
356 1 0.849770 0.176620 0.455776
357 1 0.725473 0.041155 0.325182
358 1 0.230266 0.391600 0.872923
359 1 0.035430 0.257129 0.731303
360 1 0.357482 0.609582 0.151800
361 1 0.301983 0.382191 0.047766
362 1 0.428451 0.449592 0.886240
363 1 0.863563 0.145068 0.484868
364 1 0.789300 0.992150 0.508214
365 1 0.706479 0.415646 0.494203
366 1 0.491059 0.646153 0.924315
367 1 0.202490 0.029971 0.458799
368 1 0.947592 0.422200 0.913575
369 1 0.528442 0.184599 0.312993
370 1 0.274109 0.522651 0.412157
371 1 0.224702 0.163104 0.632962
372 1 0.654338 0.161379 0.321951
373 1 0.225929 0.899752 0.149801
374 1 0.596502 0.396511 0.882140
375 1 0.537091 0.869049 0.670517
376 1 0.113957 0.449244 0.190383
377 1 0.772979 0.844335 0.527871
378 1 0.844017 0.640272 0.520393
379 1 0.944998 0.765059 0.921447
380 1 0.393649 0.221675 0.351728
381 1 0.400892 0.347468 0.702376
382 1 0.516743 0.576170 0.735001
383 1 0.511103 0.190410 0.933326
384 1 0.996039 0.183816 0.270090
385 1 0.973534 0.891917 0.627614
386 1 0.238937 0.385319 0.936461
387 1 0.322573 0.076263 0.140913
388 1 0.612043 0.028385 0.680893
389 1 0.582800 0.017945 0.517420
390 1 0.764557 0.044060 0.619528
391 1 0.671507 0.113269 0.009328
392 1 0.470598 0.181834 0.363088
393 1 0.459186 0.110758 0.152073
394 1 0.018723 0.844494 0.533190
395 1 0.792524 0.850074 0.676354
396 1 0.141481 0.682241 0.699059
397 1 0.612391 0.637495 0.720070
398 1 0.695864 0.503937 0.022135
399 1 0.872442 0.045003 0.548868
400 1 0.844639 0.739988 0.500600
401 1 0.477757 0.615622 0.628546
402 1 0.728805 0.952206 0.761071
403 1 0.884377 0.217334 0.523900
404 1 0.079683 0.506012 0.577094
405 1 0.703485 0.854017 0.895757
406 1 0.994681 0.596585 0.606060
407 1 0.360020 0.798899 0.111323
408 1 0.029281 0.391960 0.331941
409 1 0.668189 0.042468 0.432483
410 1 0.009705 0.352428 0.402778
411 1 0.229094 0.989903 0.261178
412 1 0.261788 0.076553 0.752437
413 1 0.097269 0.732554 0.839773
414 1 0.576459 0.414257 0.309820
415 1 0.866749 0.899360 0.072102
416 1 0.515972 0.946268 0.423913
417 1 0.280838 0.827963 0.966474
418 1 0.372425 0.514507 0.255306
419 1 0.394441 0.629085 0.709112
420 1 0.070046 0.226452 0.312283
421 1 0.977941 0.482675 0.382805
422 1 0.521628 0.801137 0.492887
423 1 0.828933 0.728488 0.551866
424 1 0.115591 0.525712 0.616287
425 1 0.560308 0.709468 0.893436
426 1 0.232700 0.498934 0.403369
427 1 0.169217 0.797614 0.785321
428 1 0.787962 0.356645 0.657922
429 1 0.182713 0.773038 0.591917
430 1 0.675058 0.488351 0.008755
431 1 0.598673 0.183165 0.765354
432 1 0.584461 0.714555 0.726933
433 1 0.517933 0.178539 0.840035
434 1 0.435986 0.901969 0.454416
435 1 0.050050 0.690949 0.271403
436 1 0.580478 0.462664 0.099963
437 1 0.200653 0.815889 0.198619
438 1 0.619974 0.414361 0.388566
439 1 0.856486 0.646097 0.467479
440 1 0.101572 0.993864 0.227380
441 1 0.157490 0.338103 0.334479
442 1 0.194384 0.910611 0.395074
443 1 0.276187 0.880505 0.369911
444 1 0.378521 0.976344 0.552989
445 1 0.961482 0.031749 0.614580
446 1 0.796915 0.775449 0.029712
447 1 0.910686 0.051924 0.553620
448 1 0.928499 0.028822 0.281984
449 1 0.766551 0.235820 0.316618
450 1 0.454735 0.358186 0.498741
451 1 0.463350 0.301851 0.870237
452 1 0.549888 0.924263 0.186264
453 1 0.773029 0.784485 0.503123
454 1 0.945985 0.505798 0.845175
455 1 0.686405 0.420814 0.221339
456 1 0.924037 0.820886 0.973401
457 1 0.139395 0.244673 0.637280
458 1 0.528168 0.916084 0.333985
459 1 0.782284 0.177311 0.740560
460 1 0.987098 0.372823 0.061893
461 1 0.542770 0.807116 0.282877
462 1 0.158184 0.675472 0.528105
463 1 0.861927 0.653198 0.787093
464 1 0.020787 0.660819 0.088389
465 1 0.481291 0.253150 0.901287
466 1 0.431340 0.330256 0.481445
467 1 0.602934 0.802570 0.007728
468 1 0.425720 0.243331 0.345318
469 1 0.023340 0.230247 0.783454
470 1 0.569391 0.376603 0.894732
471 1 0.079794 0.305772 0.238572
472 1 0.024005 0.570306 0.936608
473 1 0.651816 0.622025 0.272878
474 1 0.616678 0.874362 0.805894
475 1 0.277206 0.430965 0.440988
476 1 0.509450 0.445174 0.843164
477 1 0.942822 0.877907 0.606677
478 1 0.278650 0.840395 0.631311
479 1 0.040297 0.434246 0.736478
480 1 0.982814 0.297539 0.825306
481 1 0.093554 0.475889 0.021113
482 1 0.742827 0.468431 0.574496
483 1 0.351325 0.564206 0.360968
484 1 0.209650 0.351561 0.705552
485 1 0.975020 0.686583 0.917230
486 1 0.868609 0.772390 0.401241
487 1 0.840116 0.076494 0.806633
488 1 0.517162 0.606689 0.016910
489 1 0.220285 0.304298 0.145385
490 1 0.184370 0.556830 0.854724
491 1 0.374226 0.371852 0.483487
492 1 0.775028 0.505185 0.175085
493 1 0.155695 0.147841 0.767452
494 1 0.131186 0.184516 0.571407
495 1 0.419479 0.884738 0.680472
496 1 0.118389 0.653154 0.245581
497 1 0.826404 0.924605 0.971545
498 1 0.238595 0.419072 0.553865
499 1 0.296321 0.327784 0.002572
500 1 0.497290 0.064295 0.923679
501 1 0.155027 0.287007 0.263879
502 1 0.816189 0.379131 0.922200
503 1 0.286958 0.857299 0.519951
504 1 0.547501 0.867146 0.426587
505 1 0.689042 0.587890 0.247627
506 1 0.585524 0.484467 0.498179
507 1 0.270475 0.946478 0.875829
508 1 0.636938 0.037290 0.697862
509 1 0.995724 0.671323 0.404004
510 1 0.483149 0.266652 0.252826
511 1 0.039877 0.860767 0.394578
512 1 0.726431 0.361294 0.673472
513 1 0.019250 0.193747 0.711091
514 1 0.182598 0.314555 0.558508
515 1 0.212806 0.663824 0.229123
516 1 0.893357 0.461300 0.252702
517 1 0.963951 0.865475 0.406530
518 1 0.681026 0.894322 0.374740
519 1 0.481550 0.042249 0.693700
520 1 0.951435 0.390914 0.266099
521 1 0.361982 0.045127 0.140344
522 1 0.284476 0.916910 0.405784
523 1 0.414605 0.109480 0.815732
524 1 0.700234 0.749817 0.365324
525 1 0.665773 0.227797 0.903979
526 1 0.029358 0.671704 0.933586
527 1 0.122554 0.685943 0.381017
528 1 0.276918 0.090491 0.637996
529 1 0.860380 0.174362 0.890363
530 1 0.138682 0.892382 0.080873
531 1 0.229207 0.624580 0.033346
532 1 0.029976 0.724021 0.695404
533 1 0.253488 0.922911 0.655728
534 1 0.945911 0.905677 0.011547
535 1 0.019725 0.589847 0.935035
536 1 0.206591 0.247543 0.434108
537 1 0.813547 0.241675 0.146608
538 1 0.343975 0.880530 0.608450
539 1 0.826636 0.015850 0.201228
540 1 0.049003 0.418341 0.916002
541 1 0.585518 0.806890 0.368968
542 1 0.385189 0.377055 0.406333
543 1 0.666948 0.473622 0.351164
544 1 0.123854 0.750256 0.733096
545 1 0.982140 0.379958 0.332074
546 1 0.320838 0.350860 0.859113
547 1 0.116971 0.191013 0.042745
548 1 0.669812 0.907439 0.127789
549 1 0.236810 0.715325 0.864097
550 1 0.022458 0.797735 0.756095
551 1 0.264227 0.936889 0.772857
552 1 0.695796 0.887109 0.643465
553 1 0.722458 0.822626 0.781865
554 1 0.321704 0.058835 0.346021
555 1 0.650653 0.154308 0.295914
556 1 0.569257 0.186501 0.231436
557 1 0.997234 0.198898 0.064689
558 1 0.913368 0.798389 0.601589
559 1 0.625172 0.150771 0.620523
560 1 0.038004 0.973280 0.810268
561 1 0.728521 0.647583 0.844750
562 1 0.222984 0.937326 0.771113
563 1 0.043479 0.056784 0.553132
564 1 0.451365 0.616057 0.743555
565 1 0.087836 0.226124 0.949519
566 1 0.148128 0.827600 0.203033
567 1 0.691503 0.323290 0.562553
568 1 0.173916 0.672998 0.367344
569 1 0.018100 0.390477 0.317621
570 1 0.935551 0.409900 0.232558
571 1 0.079759 0.867812 0.778764
572 1 0.238081 0.881072 0.762083
573 1 0.331466 0.371175 0.598770
574 1 0.235735 0.086998 0.359034
575 1 0.719545 0.164706 0.225551
576 1 0.918848 0.230202 0.757482
577 1 0.767522 0.081751 0.255838
578 1 0.834473 0.677319 0.904604
579 1 0.537242 0.689585 0.509986
580 1 0.885083 0.917892 0.677441
581 1 0.490666 0.565149 0.236295
582 1 0.481254 0.056893 0.075096
583 1 0.363607 0.816578 0.852871
584 1 0.857755 0.878856 0.952886
585 1 0.152891 0.841497 0.815266
586 1 0.792638 0.296424 0.889139
587 1 0.358763 0.054851 0.589745
588 1 0.107047 0.126269 0.465297
589 1 0.954014 0.392069 0.168390
590 1 0.693107 0.620269 0.123722
591 1 0.097257 0.124432 0.582612
592 1 0.928979 0.355613 0.880308
593 1 0.550567 0.014554 0.240428
594 1 0.420794 0.673247 0.947553
595 1 0.553999 0.555515 0.507744
596 1 0.227541 0.940031 0.382248
597 1 0.282912 0.395660 0.521001
598 1 0.954785 0.258526 0.897051
599 1 0.663622 0.893331 0.921460
600 1 0.929325 0.034348 0.492805
601 1 0.209043 0.785164 0.774963
602 1 0.226899 0.632351 0.700400
603 1 0.376977 0.017963 0.182160
604 1 0.973717 0.605303 0.957318
605 1 0.086058 0.790191 0.209339
606 1 0.767576 0.672448 0.576461
607 1 0.312898 0.117846 0.337413
608 1 0.825543 0.176102 0.344327
609 1 0.800006 0.979959 0.273716
610 1 0.009783 0.004840 0.428446
611 1 0.187165 0.619124 0.264243
612 1 0.330707 0.006763 0.284811
613 1 0.470578 0.025678 0.305433
614 1 0.854868 0.866387 0.893947
615 1 0.495576 0.305016 0.752856
616 1 0.952583 0.966057 0.923008
617 1 0.123905 0.483596 0.432641
618 1 0.893607 0.495475 0.539199
619 1 0.569298 0.371325 0.895186
620 1 0.734584 0.020853 0.978188
621 1 0.673000 0.131533 0.511890
622 1 0.419000 0.564901 0.511294
623 1 0.262630 0.180623 0.662044
624 1 0.562390 0.236159 0.328130
625 1 0.526208 0.740873 0.804286
626 1 0.818411 0.324278 0.507733
627 1 0.802934 0.278497 0.723219
628 1 0.379407 0.452438 0.779086
629 1 0.470972 0.520192 0.051451
630 1 0.851752 0.832829 0.197612
631 1 0.355154 0.018822 0.087669
632 1 0.921245 0.358171 0.064431
633 1 0.140039 0.430363 0.433773
634 1 0.832202 0.716334 0.738387
635 1 0.374134 0.050130 0.636837
636 1 0.850233 0.124273 0.883990
637 1 0.465061 0.744158 0.167588
638 1 0.843852 0.337565 0.821590
639 1 0.315470 0.134521 0.475440
640 1 0.117253 0.175376 0.644894
641 1 0.676169 0.513978 0.134670
642 1 0.439090 0.591312 0.660940
643 1 0.125831 0.861622 0.811247
644 1 0.768289 0.291073 0.180308
645 1 0.539690 0.050514 0.949694
646 1 0.373414 0.659970 0.728897
647 1 0.192107 0.471985 0.537065
648 1 0.173877 0.787058 0.901948
649 1 0.395426 0.017033 0.240846
650 1 0.892903 0.713042 0.440124
651 1 0.344997 0.882406 0.741875
652 1 0.474949 0.445905 0.649913
653 1 0.119514 0.447556 0.170807
654 1 0.444142 0.792643 0.372953
655 1 0.624933 0.017221 0.534596
656 1 0.834188 0.200038 0.364177
657 1 0.959315 0.852451 0.068138
658 1 0.091817 0.643287 0.287241
659 1 0.396700 0.288937 0.344558
660 1 0.359131 0.627476 0.896542
661 1 0.226988 0.789773 0.191562
662 1 0.190868 0.388435 0.143497
663 1 0.944039 0.650028 0.507346
664 1 0.051342 0.810404 0.161594
665 1 0.891137 0.386149 0.770652
666 1 0.338992 0.207907 0.132209
667 1 0.084786 0.097880 0.267844
668 1 0.262131 0.903175 0.913846
669 1 0.668667 0.012079 0.784186
670 1 0.010134 0.129854 0.018294
671 1 0.316256 0.102192 0.356574
672 1 0.135179 0.506692 0.836925
673 1 0.138716 0.518511 0.630128
674 1 0.888821 0.856939 0.363355
675 1 0.606640 0.324203 0.027974
676 1 0.318866 0.380806 0.586430
677 1 0.250219 0.770724 0.824761
678 1 0.028303 0.263636 0.224110
679 1 0.722306 0.748473 0.870641
680 1 0.767676 0.314164 0.600724
681 1 0.895827 0.434174 0.013046
682 1 0.468788 0.621314 0.898683
683 1 0.595602 0.984599 0.544033
684 1 0.602106 0.118346 0.022540
685 1 0.776243 0.755238 0.889381
686 1 0.745252 0.003933 0.222260
687 1 0.231190 0.772929 0.792094
688 1 0.327938 0.048028 0.042959
689 1 0.932454 0.952782 0.368776
690 1 0.973509 0.462270 0.651931
691 1 0.380123 0.040567 0.611657
692 1 0.895179 0.090463 0.529647
693 1 0.128560 0.385913 0.026955
694 1 0.718342 0.791342 0.630715
695 1 0.917600 0.165903 0.906155
696 1 0.892931 0.954968 0.103285
697 1 0.476347 0.353134 0.993131
698 1 0.583485 0.411607 0.810155
699 1 0.891331 0.552841 0.485691
700 1 0.316052 0.754722 0.032513
701 1 0.071465 0.250408 0.799941
702 1 0.433330 0.674942 0.158632
703 1 0.717661 0.765713 0.325809
704 1 0.156611 0.241967 0.605244
705 1 0.947581 0.615163 0.582138
706 1 0.293834 0.096426 0.309284
707 1 0.748598 0.961406 0.123144
708 1 0.076872 0.414548 0.530981
709 1 0.016533 0.908929 0.449226
710 1 0.899361 0.494450 0.380314
711 1 0.315643 0.404428 0.438808
712 1 0.944028 0.715703 0.633733
713 1 0.827962 0.500648 0.772839
714 1 0.156162 0.333685 0.670255
715 1 0.679246 0.820191 0.145025
716 1 0.754237 0.584669 0.440864
717 1 0.785014 0.662556 0.844435
718 1 0.392701 0.261787 0.316652
719 1 0.100875 0.532629 0.236376
720 1 0.257766 0.609141 0.601593
721 1 0.606404 0.447908 0.826061
722 1 0.499303 0.148014 0.858937
723 1 0.836790 0.550474 0.361766
724 1 0.672372 0.609357 0.576850
725 1 0.812222 0.111787 0.158663
726 1 0.413149 0.570854 0.077472
727 1 0.127499 0.815079 0.902120
728 1 0.776246 0.863543 0.446976
729 1 0.609984 0.742394 0.413739
730 1 0.923223 0.311714 0.353109
731 1 0.583573 0.225854 0.189271
732 1 0.029834 0.505976 0.621982
733 1 0.557166 0.489126 0.265839
734 1 0.018507 0.990134 0.142729
735 1 0.605207 0.673565 0.175195
736 1 0.786022 0.406751 0.544402
737 1 0.700859 0.314347 0.126044
738 1 0.980293 0.334777 0.517026
739 1 0.155777 0.379609 0.256319
740 1 0.117353 0.792658 0.762859
741 1 0.230797 0.136230 0.467268
742 1 0.056522 0.427269 0.050911
743 1 0.935648 0.696393 0.429549
744 1 0.051185 0.965785 0.633202
745 1 0.364613 0.943941 0.772948
746 1 0.527396 0.123400 0.390575
747 1 0.507725 0.867073 0.601115
748 1 0.152388 0.882178 0.297240
749 1 0.396775 0.900299 0.578958
750 1 0.167929 0.552985 0.019169
751 1 0.457249 0.429081 0.581622
752 1 0.019508 0.843732 0.011677
753 1 0.393917 0.348444 0.414711
754 1 0.694680 0.777468 0.892394
755 1 0.020498 0.343986 0.512486
756 1 0.706918 0.326672 0.756924
757 1 0.293313 0.634052 0.404554
758 1 0.475788 0.339222 0.929514
759 1 0.360743 0.162668 0.871027
760 1 0.186929 0.913708 0.121407
761 1 0.598724 0.146096 0.745183
762 1 0.551050 0.604109 0.934045
763 1 0.902853 0.538607 0.346400
764 1 0.402098 0.632098 0.988445
765 1 0.842216 0.554823 0.393008
766 1 0.946262 0.654828 0.653116
767 1 0.913572 0.626178 0.190615
768 1 0.384102 0.574639 0.976286
769 1 0.956977 0.688217 0.392489
770 1 0.534358 0.328442 0.063259
771 1 0.417471 0.167606 0.945345
772 1 0.925417 0.881758 0.113221
773 1 0.069506 0.351208 0.860312
774 1 0.080718 0.328740 0.612040
775 1 0.499209 0.413932 0.994630
776 1 0.093272 0.503966 0.041398
777 1 0.365553 0.771348 0.436976
778 1 0.907146 0.364958 0.802829
779 1 0.352017 0.193412 0.370706
780 1 0.185736 0.313188 0.364475
781 1 0.517309 0.008824 0.826025
782 1 0.426919 0.789630 0.257876
783 1 0.578761 0.028980 0.307824
784 1 0.688362 0.539903 0.666093
785 1 0.235414 0.992557 0.601126
786 1 0.579941 0.999296 0.347935
787 1 0.805771 0.710382 0.418976
788 1 0.731929 0.138780 0.612768
789 1 0.352912 0.247822 0.123787
790 1 0.615657 0.085645 0.306681
791 1 0.115816 0.222624 0.224632
792 1 0.968052 0.256087 0.275699
793 1 0.540933 0.010190 0.167355
794 1 0.264391 0.751976 0.313511
795 1 0.175654 0.843975 0.833855
796 1 0.247227 0.613734 0.338653
797 1 0.696630 0.813037 0.234535
798 1 0.234696 0.625826 0.090735
799 1 0.476203 0.698827 0.726406
800 1 0.994523 0.115290 0.379682
801 1 0.745412 0.547093 0.881851
802 1 0.585770 0.353932 0.037970
803 1 0.053592 0.343938 0.166427
804 1 0.051292 0.515463 0.836195
805 1 0.454229 0.535811 0.580837
806 1 0.411751 0.290810 0.131694
807 1 0.068825 0.595113 0.629251
808 1 0.686943 0.733908 0.817083
809 1 0.222438 0.018600 0.241977
810 1 0.784375 0.495820 0.025456
811 1 0.101187 0.360102 0.359511
812 1 0.833762 0.656965 0.154896
813 1 0.594274 0.269893 0.087591
814 1 0.973427 0.873134 0.810347
815 1 0.632479 0.636647 0.388660
816 1 0.281545 0.147052 0.149960
817 1 0.102917 0.229503 0.230347
818 1 0.935127 0.195951 0.392256
819 1 0.484663 0.114028 0.686409
820 1 0.797534 0.399178 0.085258
821 1 0.864991 0.432773 0.439467
822 1 0.548118 0.303483 0.195549
823 1 0.510938 0.924979 0.016563
824 1 0.822992 0.010635 0.300462
825 1 0.026916 0.536894 0.174063
826 1 0.611869 0.658618 0.692018
827 1 0.244105 0.578080 0.357903
828 1 0.829836 0.802185 0.578761
829 1 0.753357 0.574602 0.352891
830 1 0.653875 0.661694 0.580399
831 1 0.760385 0.874335 0.865855
832 1 0.669663 0.835031 0.897214
833 1 0.616484 0.657726 0.714649
834 1 0.305288 0.344486 0.816961
835 1 0.647339 0.604101 0.443610
836 1 0.063535 0.395192 0.058910
837 1 0.938647 0.118871 0.836666
838 1 0.995823 0.986476 0.012804
839 1 0.648847 0.575948 0.446553
840 1 0.649185 0.048895 0.364707
841 1 0.162900 0.341054 0.941882
842 1 0.267045 0.320553 0.044360
843 1 0.897998 0.932636 0.279196
844 1 0.426948 0.568977 0.012414
845 1 0.495757 0.939531 0.909825
846 1 0.275673 0.207977 0.691146
847 1 0.268301 0.170085 0.486456
848 1 0.948963 0.766503 0.859441
849 1 0.555820 0.770443 0.891922
850 1 0.483835 0.391783 0.645662
851 1 0.296291 0.685610 0.398133
852 1 0.354830 0.908346 0.953218
853 1 0.518975 0.709771 0.748332
854 1 0.643733 0.192097 0.488814
855 1 0.422866 0.203507 0.840005
856 1 0.756902 0.390773 0.531875
857 1 0.654364 0.484256 0.361733
858 1 0.766259 0.704006 0.834053
859 1 0.994858 0.915322 0.205665
860 1 0.391880 0.560419 0.206789
861 1 0.047379 0.361595 0.794889
862 1 0.654856 0.124401 0.834822
863 1 0.867869 0.758789 0.064457
864 1 0.326988 0.795272 0.535270
865 1 0.641612 0.032053 0.176515
866 1 0.822060 0.638038 0.601411
867 1 0.957178 0.365830 0.281060
868 1 0.621113 0.876627 0.230131
869 1 0.335715 0.983985 0.221299
870 1 0.520328 0.271267 0.333452
871 1 0.612285 0.166236 0.263987
872 1 0.450277 0.740040 0.294786
873 1 0.476153 0.393022 0.403489
874 1 0.037589 0.200271 0.206944
875 1 0.182881 0.413822 0.131101
876 1 0.655481 0.499789 0.276659
877 1 0.488836 0.506587 0.477066
878 1 0.393034 0.841514 0.006915
879 1 0.510231 0.061427 0.937311
880 1 0.016009 0.501415 0.310291
881 1 0.347375 0.171704 0.698281
882 1 0.833091 0.616839 0.550989
883 1 0.507549 0.038767 0.949424
884 1 0.579202 0.346518 0.698899
885 1 0.767166 0.017811 0.932757
886 1 0.737394 0.807807 0.408973
887 1 0.305170 0.407303 0.657841
888 1 0.266883 0.006039 0.312684
889 1 0.921860 0.488636 0.337319
890 1 0.465620 0.926414 0.718460
891 1 0.487283 0.854708 0.835149
892 1 0.088385 0.885745 0.817514
893 1 0.464324 0.176850 0.588503
894 1 0.938600 0.507571 0.157410
895 1 0.981826 0.159931 0.041591
896 1 0.030691 0.279544 0.765450
897 1 0.836489 0.105830 0.442172
898 1 0.128377 0.931858 0.702963
899 1 0.762155 0.609041 0.610871
900 1 0.911170 0.187987 0.155715
901 1 0.147810 0.744809 0.617072
902 1 0.647158 0.656772 0.357583
903 1 0.180913 0.621332 0.835662
904 1 0.003262 0.913079 0.510270
905 1 0.245182 0.453555 0.870548
906 1 0.821471 0.916635 0.955446
907 1 0.182462 0.613238 0.766029
908 1 0.915380 0.509940 0.344074