ITEM: TIMESTEP
0
ITEM: NUMBER OF ATOMS
100
ITEM: BOX BOUNDS pp pp pp
0.0 10.000000
0.0 10.000000
0.0 10.000000
ITEM: ATOMS id type xs ys zs
1 1 0.716559 0.454238 0.505400
2 1 0.946375 0.215728 0.498294
3 1 0.030911 0.416002 0.760762
4 1 0.462781 0.548415 0.330500
5 1 0.847015 0.185300 0.682751
6 1 0.717944 0.575761 0.369437
7 1 0.888656 0.685465 0.228401
8 1 0.209175 0.511918 0.678141
9 1 0.962500 0.098526 0.516753
10 1 0.987019 0.460370 0.783343
11 1 0.259234 0.633964 0.031870
12 1 0.130894 0.701819 0.413891
13 1 0.859658 0.593692 0.724461
14 1 0.617285 0.485412 0.277440
15 1 0.633029 0.811936 0.371326
16 1 0.616134 0.255692 0.024997
17 1 0.199741 0.404047 0.145035
18 1 0.636056 0.317723 0.248065
19 1 0.541109 0.800865 0.181538
20 1 0.369269 0.086471 0.303104
21 1 0.516199 0.490106 0.530135
22 1 0.721219 0.801658 0.809143
23 1 0.153582 0.149190 0.613669
24 1 0.627810 0.375646 0.000010
25 1 0.070734 0.175349 0.268727
26 1 0.552312 0.270010 0.989439
27 1 0.750799 0.146324 0.167819
28 1 0.660061 0.507932 0.831379
29 1 0.196255 0.831977 0.111633
30 1 0.883778 0.815330 0.905783
31 1 0.282079 0.160895 0.348490
32 1 0.528532 0.151957 0.050836
33 1 0.224107 0.502754 0.873688
34 1 0.796038 0.129384 0.740562
35 1 0.773138 0.998691 0.711499
36 1 0.614818 0.203091 0.554434
37 1 0.522185 0.141217 0.230429
38 1 0.655907 0.652590 0.155477
39 1 0.142200 0.511525 0.089218
40 1 0.644456 0.959871 0.462937
41 1 0.966308 0.973637 0.809939
42 1 0.415456 0.842475 0.305681
43 1 0.981907 0.591725 0.205373
44 1 0.301443 0.921702 0.498031
45 1 0.812268 0.244026 0.157350
46 1 0.476798 0.990285 0.157359
47 1 0.342998 0.932164 0.127384
48 1 0.666471 0.084900 0.719430
49 1 0.984220 0.958238 0.591124
50 1 0.108162 0.982789 0.117099
51 1 0.687842 0.847641 0.819177
52 1 0.102641 0.908183 0.596169
53 1 0.427769 0.877146 0.366461
54 1 0.619246 0.577653 0.112540
55 1 0.124769 0.036566 0.456060
56 1 0.999719 0.112721 0.667632
57 1 0.299524 0.292362 0.087818
58 1 0.390146 0.482066 0.499251
59 1 0.997329 0.836162 0.415376
60 1 0.258575 0.945139 0.996837
61 1 0.832463 0.225111 0.309167
62 1 0.409808 0.241906 0.331349
63 1 0.095942 0.752315 0.281444
64 1 0.637250 0.941241 0.649582
65 1 0.385870 0.359590 0.589675
66 1 0.937597 0.411053 0.219038
67 1 0.795920 0.178190 0.059562
68 1 0.633422 0.311173 0.695714
69 1 0.028192 0.883901 0.660295
70 1 0.426192 0.932067 0.738667
71 1 0.534982 0.517373 0.505120
72 1 0.648908 0.958883 0.188302
73 1 0.474920 0.662164 0.355212
74 1 0.988475 0.765937 0.056411
75 1 0.225300 0.712234 0.991458
76 1 0.474967 0.461116 0.585261
77 1 0.138848 0.574585 0.356113
78 1 0.774460 0.428670 0.198844
79 1 0.914723 0.254436 0.699019
80 1 0.480412 0.515929 0.521613
81 1 0.770931 0.396892 0.428687
82 1 0.143115 0.499190 0.817613
83 1 0.593095 0.866035 0.827933
84 1 0.820847 0.433552 0.169066
85 1 0.037742 0.336530 0.338261
86 1 0.355527 0.455599 0.435374
87 1 0.598522 0.430169 0.833086
88 1 0.453175 0.167819 0.093634
89 1 0.785973 0.943747 0.202233
90 1 0.130744 0.755914 0.798839
91 1 0.925905 0.192842 0.233432
92 1 0.754633 0.523167 0.405508
93 1 0.819812 0.502416 0.198479
94 1 0.594533 0.115888 0.221798
95 1 0.514531 0.224832 0.349455
96 1 0.009514 0.733076 0.125251
97 1 0.572372 0.210165 0.633264
98 1 0.766863 0.924059 0.847194
99 1 0.372555 0.783825 0.992240
100 1 0.063520 0.941557 0.821991
