ITEM: TIMESTEP
0
ITEM: NUMBER OF ATOMS
864
ITEM: BOX BOUNDS pp pp pp
0.0 23.5440
0.0 23.5440
0.0 23.5440
ITEM: ATOMS id type x y z error strain stiffness
1 78 0.0341 -0.0005 0.0349 6.6019 0.0000 1.6945
2 78 2.0192 1.9036 -0.0118 6.8845 0.0000 1.5463
3 78 2.0376 0.0711 1.9199 6.7695 0.0000 1.5698
4 78 0.0407 2.0146 1.9312 7.0917 0.0000 1.5245
5 78 -0.0237 -0.0192 3.8704 6.8596 0.0000 1.3337
6 78 1.8697 1.9767 3.9517 7.5778 0.0000 1.5206
7 78 2.0079 0.0697 5.8344 6.8779 0.0000 1.6290
8 78 0.1057 2.0705 5.8517 5.5491 0.0000 1.6931
9 78 0.0527 0.0075 7.9232 6.8390 0.0000 1.6077
10 78 2.0254 1.9654 7.8699 6.2884 0.0000 1.5986
11 78 1.9613 0.0122 9.8312 6.8564 0.0000 1.4023
12 78 0.0123 1.9645 9.8236 7.1236 0.0000 1.4832
13 78 0.1207 0.0811 11.8042 7.6981 0.0000 1.7097
14 78 1.9867 1.9648 11.7615 5.6624 0.0000 1.4327
15 78 2.0846 0.0050 13.7258 7.3036 0.0000 1.3201
16 78 0.0515 2.0211 13.7693 5.7981 0.0000 1.4692
17 78 0.0367 -0.0349 15.6870 7.4837 0.0000 1.5587
18 78 2.0038 2.0961 15.7392 7.2917 0.0000 1.4489
19 78 1.9855 0.0084 17.6700 6.7964 0.0000 1.5800
20 78 -0.0379 2.0012 17.6035 7.4694 0.0000 1.5461
21 78 0.0049 0.0590 19.5726 7.9078 0.0000 1.4411
22 78 2.0377 1.9827 19.6758 6.5630 0.0000 1.4977
23 78 2.0445 -0.0216 21.5732 7.6803 0.0000 1.5238
24 78 -0.0011 1.9463 21.5880 5.4426 0.0000 1.5437
25 78 0.0228 3.9468 -0.0151 7.7913 0.0000 1.4722
26 78 1.9272 5.8812 -0.0438 5.5637 0.0000 1.5603
27 78 2.0514 3.9620 1.9408 5.9199 0.0000 1.6597
28 78 -0.0819 5.8866 2.0515 5.3549 0.0000 1.5894
29 78 -0.0118 3.9416 3.8773 5.4427 0.0000 1.4516
30 78 1.8667 5.9013 3.8483 7.4121 0.0000 1.3830
31 78 2.0534 3.9034 5.8649 7.8886 0.0000 1.3893
32 78 -0.0394 5.9979 5.8520 5.9736 0.0000 1.3945
33 78 -0.0661 4.0568 7.8497 6.6864 0.0000 1.4590
34 78 1.9836 5.9567 7.7744 7.9913 0.0000 1.3718
35 78 1.9363 3.9744 9.8461 7.5570 0.0000 1.4911
36 78 -0.0255 5.9137 9.8475 6.8968 0.0000 1.4351
37 78 -0.0630 3.8611 11.8569 6.8729 0.0000 1.6409
38 78 1.9021 5.7895 11.8150 6.2607 0.0000 1.5163
39 78 1.9792 3.9833 13.7549 7.6757 0.0000 1.5907
40 78 -0.0422 5.8550 13.6395 6.3018 0.0000 1.6574
41 78 -0.0496 3.9575 15.7445 6.5535 0.0000 1.2918
42 78 1.8545 5.9084 15.6585 7.6235 0.0000 1.3607
43 78 2.0456 3.8363 17.6588 6.0870 0.0000 1.2852
44 78 -0.0739 5.9400 17.6278 5.8378 0.0000 1.5165
45 78 -0.0259 3.9616 19.6092 7.5974 0.0000 1.4014
46 78 2.0028 5.8477 19.6341 7.9590 0.0000 1.4901
47 78 1.9617 3.8611 21.5382 6.0143 0.0000 1.3785
48 78 0.0085 5.9711 21.6203 6.5198 0.0000 1.6815
49 78 -0.0479 7.8320 0.0467 6.4839 0.0000 1.6864
50 78 1.8887 9.8140 0.0210 6.8333 0.0000 1.4847
51 78 2.0653 7.8105 1.9392 7.8866 0.0000 1.5147
52 78 0.0399 9.8180 1.8909 5.4959 0.0000 1.7096
53 78 0.0382 7.8944 3.8872 7.1367 0.0000 1.2884
54 78 2.0795 9.7880 3.8000 6.3517 0.0000 1.6793
55 78 2.0177 7.8299 5.9445 5.4051 0.0000 1.5076
56 78 -0.0413 9.7243 5.8971 7.2490 0.0000 1.6287
57 78 0.0543 7.8510 7.8561 6.0019 0.0000 1.3381
58 78 1.8640 9.8166 7.8825 6.5082 0.0000 1.6656
59 78 1.9775 7.9355 9.8385 6.1979 0.0000 1.3611
60 78 -0.0099 9.7493 9.7986 7.1581 0.0000 1.4915
61 78 0.0204 7.8812 11.7745 7.8799 0.0000 1.6944
62 78 1.8961 9.7901 11.8919 7.3894 0.0000 1.6168
63 78 1.9511 7.8653 13.6688 5.9672 0.0000 1.6263
64 78 -0.0035 9.8069 13.6838 7.2150 0.0000 1.7255
65 78 -0.0077 7.8514 15.6817 6.6255 0.0000 1.2992
66 78 1.9310 9.8139 15.6773 6.8361 0.0000 1.4134
67 78 1.9839 7.9268 17.7338 5.7982 0.0000 1.6944
68 78 0.0040 9.8531 17.7136 7.8431 0.0000 1.4800
69 78 0.0497 7.8533 19.6725 5.3564 0.0000 1.4030
70 78 1.9175 9.9057 19.6878 6.9928 0.0000 1.3968
71 78 2.0236 7.8250 21.5864 6.3658 0.0000 1.3764
72 78 -0.0132 9.8099 21.5857 5.5206 0.0000 1.3414
73 78 0.0207 11.7163 -0.0199 5.7629 0.0000 1.3084
74 78 1.9813 13.7504 0.0694 5.3914 0.0000 1.4642
75 78 2.0187 11.8008 2.0131 7.3136 0.0000 1.3593
76 78 0.0137 13.5710 1.9824 5.8192 0.0000 1.7071
77 78 -0.0812 11.7292 3.8791 7.3344 0.0000 1.4453
78 78 1.8738 13.7163 4.0012 5.8314 0.0000 1.3908
79 78 1.9558 11.7925 5.9303 5.3669 0.0000 1.7233
80 78 0.0922 13.6675 5.9238 7.2592 0.0000 1.3880
81 78 0.0465 11.7216 7.7694 6.6696 0.0000 1.4069
82 78 2.0069 13.5576 7.8063 5.8054 0.0000 1.6734
83 78 1.9799 11.8449 9.8334 6.2752 0.0000 1.5965
84 78 0.0589 13.7416 9.8507 6.7553 0.0000 1.4338
85 78 -0.0170 11.7139 11.7068 5.6411 0.0000 1.3647
86 78 2.0450 13.7446 11.7611 7.1558 0.0000 1.4411
87 78 1.9200 11.8092 13.7902 5.3518 0.0000 1.5121
88 78 0.0000 13.8123 13.7338 7.3777 0.0000 1.6375
89 78 -0.0706 11.7528 15.5793 6.9611 0.0000 1.3276
90 78 2.0147 13.7678 15.7336 6.1086 0.0000 1.5580
91 78 1.9276 11.7346 17.6544 5.6662 0.0000 1.3419
92 78 -0.0558 13.6891 17.7646 6.2115 0.0000 1.3049
93 78 0.0394 11.7216 19.6752 7.0986 0.0000 1.3598
94 78 2.0940 13.7264 19.6924 7.6266 0.0000 1.6090
95 78 1.9827 11.7504 21.5803 6.9306 0.0000 1.2887
96 78 -0.1114 13.7002 21.5266 6.2558 0.0000 1.4153
97 78 -0.1131 15.7061 0.1020 7.0573 0.0000 1.6874
98 78 1.9249 17.6822 -0.0820 6.7851 0.0000 1.4002
99 78 1.8755 15.6211 1.8809 6.9402 0.0000 1.6139
100 78 0.0210 17.6050 1.9277 6.9965 0.0000 1.4422
101 78 0.0458 15.6844 3.9434 6.0762 0.0000 1.4595
102 78 1.9874 17.6259 3.9308 6.8911 0.0000 1.3980
103 78 1.9784 15.7342 5.9001 5.9514 0.0000 1.6228
104 78 0.0571 17.7081 5.8762 6.2566 0.0000 1.6213
105 78 0.0748 15.7126 7.7816 7.8585 0.0000 1.4466
106 78 1.9381 17.6368 7.8591 6.5281 0.0000 1.4710
107 78 2.0016 15.6967 9.8910 7.6152 0.0000 1.3839
108 78 -0.0838 17.5779 9.7937 6.5737 0.0000 1.5683
109 78 -0.0253 15.7716 11.7424 6.7295 0.0000 1.3582
110 78 1.8866 17.6366 11.7666 7.3368 0.0000 1.6295
111 78 1.9937 15.5743 13.6614 6.0569 0.0000 1.3514
112 78 -0.0077 17.6638 13.6960 7.4705 0.0000 1.5320
113 78 0.0477 15.7471 15.5779 7.6394 0.0000 1.6727
114 78 1.9263 17.7115 15.6434 6.4156 0.0000 1.4917
115 78 1.9505 15.7008 17.6532 6.5107 0.0000 1.4041
116 78 0.1183 17.6733 17.6650 6.0402 0.0000 1.5087
117 78 -0.0186 15.5849 19.5950 7.9129 0.0000 1.3081
118 78 1.8328 17.6774 19.6194 5.6103 0.0000 1.6309
119 78 1.8748 15.6372 21.6170 6.9834 0.0000 1.5175
120 78 -0.0102 17.6737 21.6320 7.8678 0.0000 1.5015
121 78 0.1376 19.6335 0.0140 6.5927 0.0000 1.4219
122 78 1.9699 21.6600 0.0012 5.7014 0.0000 1.4605
123 78 1.9875 19.6949 1.9291 6.9085 0.0000 1.3638
124 78 -0.1125 21.5340 1.9561 7.9004 0.0000 1.3887
125 78 -0.0668 19.6700 3.8415 6.8285 0.0000 1.3011
126 78 1.8919 21.6472 3.8042 7.4498 0.0000 1.4431
127 78 1.9630 19.7012 5.9696 7.4540 0.0000 1.4696
128 78 -0.0869 21.6958 5.8946 7.0598 0.0000 1.3105
129 78 -0.0250 19.6619 7.7345 5.8601 0.0000 1.3032
130 78 1.9507 21.5696 7.7879 5.5012 0.0000 1.6335
131 78 1.9268 19.5633 9.7772 6.1285 0.0000 1.6333
132 78 0.0565 21.4746 9.8079 7.5814 0.0000 1.5992
133 78 -0.0319 19.5789 11.7779 6.7212 0.0000 1.2866
134 78 1.9860 21.7047 11.7483 7.7619 0.0000 1.5939
135 78 1.9700 19.5959 13.7963 5.7330 0.0000 1.2921
136 78 -0.1104 21.6399 13.7597 7.8025 0.0000 1.4520
137 78 -0.0485 19.6803 15.6813 7.2942 0.0000 1.4871
138 78 2.0057 21.5486 15.7139 7.9689 0.0000 1.3175
139 78 2.0301 19.6165 17.6350 6.6347 0.0000 1.5534
140 78 -0.0352 21.6627 17.6836 6.8542 0.0000 1.3563
141 78 -0.1123 19.6585 19.6146 7.8369 0.0000 1.5652
142 78 2.0248 21.4725 19.5556 5.3926 0.0000 1.7025
143 78 1.9422 19.5548 21.5782 7.1474 0.0000 1.3833
144 78 -0.0686 21.5749 21.5919 5.9091 0.0000 1.5486
145 78 3.8610 -0.0048 0.0094 5.6415 0.0000 1.6987
146 78 5.8307 1.9916 0.0962 5.4794 0.0000 1.6356
147 78 5.9139 0.0370 1.9910 5.3656 0.0000 1.4803
148 78 3.9409 1.9199 2.0295 5.7518 0.0000 1.4519
149 78 3.9909 0.0107 3.9581 6.3536 0.0000 1.2807
150 78 5.8592 1.9829 3.8710 7.4485 0.0000 1.4929
151 78 5.8987 0.0582 5.8678 7.0545 0.0000 1.3628
152 78 3.9505 1.9349 5.9019 7.3088 0.0000 1.6160
153 78 3.8894 -0.1025 7.8779 6.3888 0.0000 1.4146
154 78 5.9396 1.9498 7.9602 5.9851 0.0000 1.3597
155 78 5.8527 -0.0329 9.7360 6.1195 0.0000 1.3877
156 78 3.8971 1.9911 9.8695 6.3416 0.0000 1.7239
157 78 3.9536 -0.0043 11.7735 6.1210 0.0000 1.3650
158 78 5.8792 1.9543 11.7963 7.6657 0.0000 1.5788
159 78 5.9209 0.0140 13.7267 5.3447 0.0000 1.3498
160 78 4.0020 1.9432 13.7644 6.2851 0.0000 1.5090
161 78 3.9388 -0.0302 15.6704 5.4538 0.0000 1.5237
162 78 5.8984 1.8339 15.6544 6.6417 0.0000 1.3939
163 78 5.9220 -0.0299 17.7034 6.7406 0.0000 1.5004
164 78 3.8500 1.9773 17.6592 5.7299 0.0000 1.5235
165 78 3.9114 -0.0703 19.5762 5.5921 0.0000 1.4955
166 78 5.9417 1.9940 19.6680 6.3699 0.0000 1.6105
167 78 5.9619 0.0969 21.4647 5.3485 0.0000 1.5688
168 78 3.9164 2.1043 21.5913 6.7898 0.0000 1.3421
169 78 3.9427 3.9736 -0.0561 6.6779 0.0000 1.5810
170 78 5.9397 5.9274 0.0425 7.6703 0.0000 1.4452
171 78 5.8468 3.9775 1.9866 6.6301 0.0000 1.6689
172 78 3.9765 5.8727 1.9448 7.0730 0.0000 1.5696
173 78 3.9747 3.8549 3.9579 6.4307 0.0000 1.5807
174 78 5.9006 5.8950 3.9632 5.3336 0.0000 1.3967
175 78 5.9004 4.0169 5.9489 6.9339 0.0000 1.3006
176 78 4.0196 5.8762 5.8100 7.0102 0.0000 1.6400
177 78 4.0101 3.9135 7.8389 5.7707 0.0000 1.2856
178 78 5.8784 5.8851 7.9372 7.2883 0.0000 1.7084
179 78 5.9180 3.9663 9.8522 6.4318 0.0000 1.4912
180 78 3.8320 5.7720 9.9109 6.1760 0.0000 1.7136
181 78 3.9620 3.9133 11.6986 6.7031 0.0000 1.4731
182 78 5.7883 5.8745 11.8160 6.5132 0.0000 1.3823
183 78 5.8207 3.9484 13.6529 5.3692 0.0000 1.3611
184 78 3.9857 5.8444 13.7988 7.1594 0.0000 1.4972
185 78 3.9057 3.8289 15.7059 6.8723 0.0000 1.7087
186 78 5.7863 5.9667 15.6716 7.1086 0.0000 1.5499
187 78 5.8451 3.8090 17.6751 6.1552 0.0000 1.4585
188 78 3.9255 5.8960 17.5844 7.5896 0.0000 1.3016
189 78 3.9120 3.9363 19.6792 7.5672 0.0000 1.4312
190 78 5.8669 5.8666 19.6454 5.6109 0.0000 1.2980
191 78 5.9024 3.9617 21.6343 7.5112 0.0000 1.3352
192 78 3.8875 5.8554 21.6226 6.4599 0.0000 1.2999
193 78 3.9841 7.8228 0.0528 7.3090 0.0000 1.7094
194 78 5.9065 9.8552 0.0548 5.7545 0.0000 1.3449
195 78 5.8792 7.9226 1.9267 5.6941 0.0000 1.5930
196 78 3.8939 9.9009 1.9070 6.1618 0.0000 1.6568
197 78 3.9400 7.8671 3.9146 6.8923 0.0000 1.2812
198 78 5.9298 9.7772 3.9819 7.8430 0.0000 1.5478
199 78 5.9421 7.8630 5.8659 7.9061 0.0000 1.2935
200 78 3.9486 9.8277 5.9332 6.3457 0.0000 1.6827
201 78 3.8377 7.8889 7.7947 7.9872 0.0000 1.5925
202 78 5.9199 9.7639 7.8036 7.8836 0.0000 1.5236
203 78 5.9149 7.7757 9.8266 7.4821 0.0000 1.3262
204 78 3.9485 9.9037 9.8202 6.9148 0.0000 1.3688
205 78 3.9268 7.8656 11.7369 5.5290 0.0000 1.6203
206 78 5.8363 9.8176 11.7479 6.0175 0.0000 1.3999
207 78 5.9403 7.8705 13.7229 7.5642 0.0000 1.5113
208 78 3.9058 9.8910 13.6760 7.6053 0.0000 1.5280
209 78 3.9187 7.9879 15.7295 6.2197 0.0000 1.6963
210 78 5.8653 9.7522 15.5800 6.3758 0.0000 1.3781
211 78 5.9392 7.8097 17.5734 7.2566 0.0000 1.5558
212 78 3.9094 9.8650 17.6508 7.7063 0.0000 1.6124
213 78 3.8399 7.8227 19.5999 7.8973 0.0000 1.4296
214 78 5.8904 9.8106 19.7287 7.8303 0.0000 1.4315
215 78 5.7909 7.8831 21.5205 7.0303 0.0000 1.6211
216 78 3.9188 9.8921 21.5451 6.5995 0.0000 1.3542
217 78 3.8262 11.7461 0.0394 7.3374 0.0000 1.4132
218 78 5.9272 13.7764 0.0422 6.2096 0.0000 1.2877
219 78 5.9705 11.6335 1.8926 6.7169 0.0000 1.5984
220 78 3.9105 13.7779 2.0575 6.8415 0.0000 1.7224
221 78 3.9809 11.7937 3.8738 6.4125 0.0000 1.2965
222 78 5.8944 13.7914 4.0178 7.0116 0.0000 1.5773
223 78 5.8928 11.7758 5.8898 6.2586 0.0000 1.3559
224 78 3.9091 13.7175 5.9679 5.6288 0.0000 1.4713
225 78 3.8869 11.7531 7.8715 5.5908 0.0000 1.4750
226 78 5.8322 13.7247 7.7876 7.8194 0.0000 1.4192
227 78 5.8736 11.7522 9.7381 6.3417 0.0000 1.6919
228 78 3.9446 13.7121 9.6543 6.8264 0.0000 1.4398
229 78 3.9037 11.7697 11.7160 5.8396 0.0000 1.5197
230 78 5.7754 13.7455 11.6862 6.4236 0.0000 1.6918
231 78 5.8579 11.7767 13.7033 5.8364 0.0000 1.2880
232 78 3.9033 13.6821 13.6916 6.3283 0.0000 1.4905
233 78 3.8632 11.8402 15.7055 7.5698 0.0000 1.2824
234 78 5.9015 13.7731 15.6854 6.1253 0.0000 1.6941
235 78 5.9706 11.8219 17.6378 7.0922 0.0000 1.6628
236 78 3.9550 13.7535 17.5361 5.3456 0.0000 1.2807
237 78 3.9244 11.7901 19.6110 7.9247 0.0000 1.4445
238 78 5.9588 13.7803 19.6513 6.1745 0.0000 1.3385
239 78 5.8614 11.6292 21.5431 7.1001 0.0000 1.6843
240 78 3.9419 13.7763 21.6432 5.7867 0.0000 1.6356
241 78 3.8778 15.7125 -0.0734 6.4873 0.0000 1.5562
242 78 5.8192 17.6328 -0.0521 7.6515 0.0000 1.4202
243 78 5.8246 15.6149 2.0787 6.8054 0.0000 1.4648
244 78 3.8685 17.6176 1.9643 6.2218 0.0000 1.6599
245 78 3.8676 15.6935 3.9427 7.0685 0.0000 1.3582
246 78 5.9323 17.6560 3.8423 5.8761 0.0000 1.6870
247 78 5.8654 15.7929 5.9187 6.7209 0.0000 1.6942
248 78 3.9877 17.6809 5.9630 6.2772 0.0000 1.5834
249 78 3.8666 15.7105 7.8023 6.4684 0.0000 1.3955
250 78 5.9354 17.5844 7.7556 5.5085 0.0000 1.7272
251 78 5.9765 15.6805 9.9168 5.9346 0.0000 1.7266
252 78 3.8648 17.6188 9.8236 7.1368 0.0000 1.3184
253 78 3.9144 15.7202 11.7768 7.1546 0.0000 1.7052
254 78 5.8862 17.7073 11.8470 5.8527 0.0000 1.6138
255 78 5.8724 15.7641 13.7369 5.5658 0.0000 1.6138
256 78 3.9053 17.6541 13.8049 7.3397 0.0000 1.7092
257 78 3.9259 15.7914 15.7042 5.7479 0.0000 1.6932
258 78 5.9187 17.5832 15.6641 7.5339 0.0000 1.4007
259 78 5.8422 15.7639 17.6159 7.3564 0.0000 1.3808
260 78 3.8452 17.6354 17.6730 6.1022 0.0000 1.4543
261 78 3.8546 15.5532 19.5651 6.8131 0.0000 1.6046
262 78 5.8808 17.6771 19.6577 5.5530 0.0000 1.6051
263 78 5.8700 15.6588 21.6486 7.3398 0.0000 1.6347
264 78 4.0320 17.7195 21.6134 5.8320 0.0000 1.5230
265 78 3.9017 19.5886 -0.0262 7.8421 0.0000 1.6287
266 78 5.8892 21.5742 -0.0295 7.0217 0.0000 1.5380
267 78 5.9096 19.5083 2.0093 7.7804 0.0000 1.5504
268 78 3.9019 21.5703 1.8814 6.1876 0.0000 1.4137
269 78 3.9202 19.6475 4.0202 5.6513 0.0000 1.5602
270 78 5.8944 21.6744 3.9592 7.7847 0.0000 1.6823
271 78 5.8718 19.6204 5.8515 7.6858 0.0000 1.7088
272 78 3.8955 21.6366 5.9827 7.4578 0.0000 1.6145
273 78 3.9706 19.6840 7.7721 6.8109 0.0000 1.3656
274 78 5.9738 21.5543 7.7721 6.3963 0.0000 1.6182
275 78 5.9067 19.6154 9.8407 6.3661 0.0000 1.7206
276 78 3.9444 21.5615 9.7980 7.1164 0.0000 1.6189
277 78 3.9836 19.6384 11.7283 5.4147 0.0000 1.2809
278 78 5.8751 21.6358 11.6948 7.2356 0.0000 1.6161
279 78 5.7677 19.6371 13.7540 6.0463 0.0000 1.6603
280 78 3.9725 21.6895 13.7046 6.5369 0.0000 1.5557
281 78 3.8724 19.6089 15.7697 5.9158 0.0000 1.3351
282 78 5.8797 21.5294 15.7277 6.9951 0.0000 1.2879
283 78 5.8423 19.6190 17.7157 6.1231 0.0000 1.6154
284 78 3.8973 21.5325 17.5656 7.1684 0.0000 1.2833
285 78 3.9759 19.6045 19.6259 6.7926 0.0000 1.4235
286 78 5.7952 21.5878 19.6417 6.4975 0.0000 1.6038
287 78 5.8015 19.5019 21.5205 6.3539 0.0000 1.6509
288 78 3.8701 21.6544 21.5076 7.3607 0.0000 1.5299
289 78 7.7944 0.0168 0.0094 5.4095 0.0000 1.4903
290 78 9.8353 1.9644 -0.0074 6.7361 0.0000 1.3581
291 78 9.7904 -0.0011 2.1140 7.5966 0.0000 1.4869
292 78 7.8153 2.0218 2.0525 5.9460 0.0000 1.6466
293 78 7.9221 0.0525 3.9178 6.2185 0.0000 1.3185
294 78 9.7781 1.9938 3.9765 5.9775 0.0000 1.6207
295 78 9.8403 0.0204 5.8511 6.3618 0.0000 1.4858
296 78 7.9349 1.9217 5.9114 7.4495 0.0000 1.4959
297 78 7.8131 0.0220 7.8361 7.9765 0.0000 1.7166
298 78 9.7689 1.9228 7.8000 6.6963 0.0000 1.4023
299 78 9.7606 -0.0432 9.8397 6.3572 0.0000 1.6974
300 78 7.8726 1.9455 9.8970 6.8967 0.0000 1.6338
301 78 7.8467 -0.0454 11.7303 5.3563 0.0000 1.5331
302 78 9.8618 1.8308 11.7262 6.1431 0.0000 1.6029
303 78 9.8074 -0.0381 13.7039 6.8642 0.0000 1.6685
304 78 7.8299 2.0227 13.7124 5.8980 0.0000 1.5174
305 78 7.7900 -0.0582 15.5887 5.4157 0.0000 1.5114
306 78 9.7423 1.9869 15.7685 5.6529 0.0000 1.4043
307 78 9.8630 -0.0476 17.6548 6.9877 0.0000 1.5381
308 78 7.8126 1.9309 17.6664 6.7459 0.0000 1.4100
309 78 7.8541 0.0119 19.6432 6.8670 0.0000 1.6034
310 78 9.8292 1.9132 19.5477 7.8332 0.0000 1.4468
311 78 9.7226 0.0791 21.5911 6.3054 0.0000 1.5183
312 78 7.7990 1.9575 21.5784 7.2134 0.0000 1.3706
313 78 7.8565 3.9705 -0.0302 7.5467 0.0000 1.5131
314 78 9.8772 5.8518 0.0314 7.4209 0.0000 1.6682
315 78 9.7299 3.9902 2.0577 5.5287 0.0000 1.2809
316 78 7.9160 5.9894 1.9993 6.4670 0.0000 1.7155
317 78 7.8036 3.9258 3.9799 6.2509 0.0000 1.5326
318 78 9.7820 5.8128 3.9320 7.9622 0.0000 1.5204
319 78 9.7438 3.9644 5.9080 7.9653 0.0000 1.3042
320 78 7.8357 5.9898 5.9721 7.7183 0.0000 1.5936
321 78 7.7515 3.9147 7.9129 7.1664 0.0000 1.2995
322 78 9.7518 5.8850 7.8562 6.9669 0.0000 1.5368
323 78 9.8997 3.9202 9.7982 7.6334 0.0000 1.5329
324 78 7.8442 5.8708 9.8410 7.0183 0.0000 1.4766
325 78 7.8227 3.9321 11.7235 7.8503 0.0000 1.4182
326 78 9.8531 5.8991 11.8087 6.2159 0.0000 1.7082
327 78 9.8276 3.9774 13.7285 7.7872 0.0000 1.4327
328 78 7.9424 5.8754 13.6757 7.2971 0.0000 1.4580
329 78 7.8362 3.9132 15.6432 6.8241 0.0000 1.7059
330 78 9.6621 5.9426 15.7110 7.1390 0.0000 1.4054
331 78 9.8643 3.8920 17.6578 6.8587 0.0000 1.6941
332 78 7.8799 5.8959 17.7364 6.3142 0.0000 1.2885
333 78 7.8824 4.0308 19.6690 5.6743 0.0000 1.5734
334 78 9.7702 5.9092 19.5533 6.2904 0.0000 1.5439
335 78 9.8005 3.9414 21.5867 5.3436 0.0000 1.6098
336 78 7.8360 5.9388 21.6024 7.5445 0.0000 1.4291
337 78 7.8791 7.8728 0.0074 6.6547 0.0000 1.2841
338 78 9.8420 9.8287 -0.0975 6.3231 0.0000 1.4504
339 78 9.8866 7.8511 1.9568 6.4968 0.0000 1.3555
340 78 7.8511 9.7909 1.9294 5.8394 0.0000 1.6719
341 78 7.8300 7.8574 3.8742 6.0290 0.0000 1.3494
342 78 9.8243 9.7857 3.9491 6.3990 0.0000 1.3258
343 78 9.9255 7.9497 5.9243 7.2194 0.0000 1.4429
344 78 7.7465 9.8204 5.9092 7.0899 0.0000 1.4530
345 78 7.8853 7.8662 7.7219 7.1455 0.0000 1.6474
346 78 9.8754 9.8818 7.8643 5.5163 0.0000 1.4629
347 78 9.7628 7.8728 9.8332 6.8219 0.0000 1.4052
348 78 7.8533 9.7947 9.8169 6.7868 0.0000 1.4326
349 78 7.8922 7.8570 11.7876 7.6230 0.0000 1.6753
350 78 9.8177 9.7545 11.8512 5.9701 0.0000 1.6099
351 78 9.8115 7.9364 13.6798 5.5892 0.0000 1.4381
352 78 7.7722 9.7219 13.6635 5.7524 0.0000 1.4571
353 78 7.8193 7.9224 15.7387 7.3761 0.0000 1.3912
354 78 9.8307 9.8468 15.7695 5.8177 0.0000 1.6167
355 78 9.8134 7.9353 17.4856 6.9915 0.0000 1.5383
356 78 7.8124 9.8242 17.6435 7.9550 0.0000 1.5040
357 78 7.9059 7.8119 19.6062 7.2181 0.0000 1.2861
358 78 9.9397 9.8514 19.5606 7.9595 0.0000 1.7275
359 78 9.8007 7.8102 21.5591 6.8039 0.0000 1.6113
360 78 7.9058 9.7857 21.6241 7.1752 0.0000 1.6639
361 78 7.8438 11.8142 0.0280 6.7062 0.0000 1.5342
362 78 9.7507 13.7749 -0.0746 7.7388 0.0000 1.2803
363 78 9.8235 11.7480 1.9650 6.1745 0.0000 1.4832
364 78 7.9052 13.6277 1.8604 5.3527 0.0000 1.3612
365 78 7.6931 11.7177 3.9298 7.6724 0.0000 1.3410
366 78 9.7850 13.7168 4.0211 7.1114 0.0000 1.7309
367 78 9.8478 11.8884 5.8612 5.8154 0.0000 1.7068
368 78 7.8811 13.6598 5.9142 6.8296 0.0000 1.6751
369 78 7.9426 11.8122 7.8679 6.9497 0.0000 1.3500
370 78 9.7783 13.7713 7.8837 6.0556 0.0000 1.5488
371 78 9.8031 11.7409 9.8179 6.1835 0.0000 1.4998
372 78 7.8709 13.6892 9.7654 6.1026 0.0000 1.5472
373 78 7.8295 11.7792 11.8433 5.8485 0.0000 1.5466
374 78 9.8087 13.6791 11.7923 6.4642 0.0000 1.4085
375 78 9.8597 11.7078 13.7481 7.8190 0.0000 1.6530
376 78 7.8658 13.7856 13.7544 7.8787 0.0000 1.6829
377 78 7.8226 11.6806 15.6426 5.9302 0.0000 1.5627
378 78 9.7483 13.6863 15.7132 5.9190 0.0000 1.6753
379 78 9.8188 11.8591 17.7276 7.7158 0.0000 1.3868
380 78 7.7781 13.7944 17.5884 7.3598 0.0000 1.5918
381 78 7.9105 11.7713 19.6080 6.9689 0.0000 1.4570
382 78 9.8377 13.7332 19.6302 5.7309 0.0000 1.7208
383 78 9.7947 11.7860 21.6166 7.2557 0.0000 1.3750
384 78 7.8889 13.8649 21.6127 6.4638 0.0000 1.3901
385 78 7.8411 15.5885 -0.0592 6.1026 0.0000 1.2956
386 78 9.8427 17.6891 -0.0471 6.8400 0.0000 1.3057
387 78 9.8241 15.6801 2.1498 6.3067 0.0000 1.6150
388 78 7.8999 17.6433 1.9874 5.8210 0.0000 1.6615
389 78 7.8857 15.7031 3.9095 7.1948 0.0000 1.3475
390 78 9.8333 17.6290 3.9128 6.1180 0.0000 1.3916
391 78 9.7689 15.7379 5.8921 7.6657 0.0000 1.7268
392 78 7.8712 17.7005 5.7961 7.9626 0.0000 1.6890
393 78 7.8571 15.7142 7.8933 6.3289 0.0000 1.3813
394 78 9.8595 17.6585 7.8905 6.5008 0.0000 1.6894
395 78 9.8412 15.6230 9.8474 7.2713 0.0000 1.3939
396 78 7.8418 17.5963 9.8353 7.2728 0.0000 1.3530
397 78 7.9911 15.6972 11.8293 5.6426 0.0000 1.5856
398 78 9.8002 17.5451 11.8270 7.6717 0.0000 1.4305
399 78 9.8267 15.6666 13.6922 7.4893 0.0000 1.4082
400 78 8.0174 17.7270 13.7062 7.5032 0.0000 1.3029
401 78 7.7964 15.6304 15.7990 7.9635 0.0000 1.4371
402 78 9.8156 17.5989 15.6588 7.8144 0.0000 1.3366
403 78 9.7510 15.7523 17.6337 6.6077 0.0000 1.2803
404 78 7.9455 17.6158 17.6109 5.4951 0.0000 1.3493
405 78 7.9181 15.6457 19.6123 6.1501 0.0000 1.4013
406 78 9.7852 17.7325 19.5702 7.7743 0.0000 1.7189
407 78 9.8441 15.7423 21.5754 6.6183 0.0000 1.3894
408 78 7.9033 17.6619 21.5462 6.6840 0.0000 1.5195
409 78 7.7853 19.5644 0.0571 6.6622 0.0000 1.5604
410 78 9.7358 21.5805 -0.0387 5.5558 0.0000 1.7245
411 78 9.8500 19.6091 1.9992 6.4930 0.0000 1.4404
412 78 7.8350 21.6232 1.9762 7.7106 0.0000 1.5695
413 78 7.8438 19.5896 3.8966 6.0744 0.0000 1.4195
414 78 9.7795 21.5288 3.9419 5.8280 0.0000 1.5536
415 78 9.8442 19.5944 5.8778 7.4294 0.0000 1.5007
416 78 7.8444 21.5657 5.9010 7.6337 0.0000 1.3440
417 78 7.7931 19.5752 7.8963 7.0668 0.0000 1.5286
418 78 9.8397 21.6388 7.7648 6.2696 0.0000 1.3179
419 78 9.8004 19.6541 9.7923 6.7045 0.0000 1.3391
420 78 7.8524 21.5429 9.9638 7.8155 0.0000 1.6930
421 78 7.7749 19.6886 11.7170 6.6163 0.0000 1.5363
422 78 9.7698 21.6374 11.7754 7.8528 0.0000 1.7182
423 78 9.8298 19.6447 13.6681 5.5993 0.0000 1.3182
424 78 7.8313 21.5285 13.7254 7.7045 0.0000 1.4209
425 78 7.8835 19.6608 15.6505 5.7431 0.0000 1.5031
426 78 9.8361 21.6313 15.6760 5.3329 0.0000 1.3775
427 78 9.7701 19.6393 17.6573 5.7100 0.0000 1.4377
428 78 7.8051 21.6661 17.6819 5.3777 0.0000 1.4690
429 78 7.8435 19.6920 19.5945 6.4932 0.0000 1.5499
430 78 9.7894 21.5240 19.5691 7.6396 0.0000 1.5963
431 78 9.7568 19.6707 21.5701 7.1242 0.0000 1.3899
432 78 7.9263 21.5553 21.6144 7.4029 0.0000 1.5786
433 78 11.7234 0.0499 0.0048 7.5993 0.0000 1.3771
434 78 13.7512 1.9767 0.0230 6.8830 0.0000 1.6685
435 78 13.6760 -0.0432 1.9460 7.6061 0.0000 1.3656
436 78 11.7830 1.9435 1.9670 7.7291 0.0000 1.3377
437 78 11.7696 -0.0116 3.9518 5.6791 0.0000 1.4539
438 78 13.7410 2.0287 3.9703 6.2090 0.0000 1.7310
439 78 13.7512 -0.0273 5.8717 5.9296 0.0000 1.5696
440 78 11.8144 1.9671 5.9148 7.6591 0.0000 1.4897
441 78 11.7604 0.0159 7.8464 7.8961 0.0000 1.7141
442 78 13.7023 1.9635 7.8104 6.8523 0.0000 1.5704
443 78 13.7426 -0.0550 9.8460 7.2171 0.0000 1.2818
444 78 11.7619 2.0176 9.8700 5.5423 0.0000 1.4026
445 78 11.7200 0.1050 11.8331 7.8405 0.0000 1.7164
446 78 13.7786 2.0800 11.7510 6.4298 0.0000 1.6332
447 78 13.6977 -0.0047 13.7143 5.6089 0.0000 1.5423
448 78 11.7998 2.0262 13.7059 6.1357 0.0000 1.3929
449 78 11.7601 -0.0365 15.6734 6.3321 0.0000 1.3908
450 78 13.6047 1.9102 15.7231 6.0895 0.0000 1.5860
451 78 13.7061 -0.0084 17.6196 6.9060 0.0000 1.7124
452 78 11.7895 2.0222 17.6045 7.8735 0.0000 1.6657
453 78 11.7445 -0.0317 19.5981 7.7822 0.0000 1.6633
454 78 13.7119 1.9675 19.5770 5.4902 0.0000 1.3598
455 78 13.6851 -0.0182 21.4761 6.1373 0.0000 1.6591
456 78 11.6309 2.0710 21.6151 5.7158 0.0000 1.6401
457 78 11.8088 3.8465 0.0435 7.3929 0.0000 1.4318
458 78 13.6405 5.8920 -0.0058 7.6440 0.0000 1.5958
459 78 13.7626 3.9124 1.9049 7.7023 0.0000 1.6212
460 78 11.8556 5.8777 2.0128 6.4142 0.0000 1.7047
461 78 11.8508 3.9083 3.9188 7.4063 0.0000 1.2852
462 78 13.7172 5.8701 3.8788 7.5595 0.0000 1.7060
463 78 13.7372 3.9613 5.9426 6.3266 0.0000 1.3765
464 78 11.8670 5.9703 5.9345 5.9413 0.0000 1.4299
465 78 11.8683 3.9411 7.8673 7.6882 0.0000 1.3787
466 78 13.8571 5.9470 7.8752 7.0799 0.0000 1.5419
467 78 13.7886 3.9190 9.8176 5.8591 0.0000 1.5559
468 78 11.6994 5.8327 9.7953 7.1151 0.0000 1.4702
469 78 11.7947 3.8998 11.8511 7.6320 0.0000 1.5440
470 78 13.6966 5.9054 11.8142 6.1666 0.0000 1.5416
471 78 13.7227 3.9353 13.7663 5.5624 0.0000 1.4646
472 78 11.6897 5.9265 13.8665 5.8410 0.0000 1.3969
473 78 11.6837 3.8629 15.6514 5.7923 0.0000 1.4177
474 78 13.7192 5.8029 15.7090 5.6408 0.0000 1.4659
475 78 13.6016 3.9235 17.6621 6.0107 0.0000 1.2842
476 78 11.7849 5.8633 17.7006 7.7318 0.0000 1.5365
477 78 11.8317 3.8835 19.5946 7.1984 0.0000 1.6824
478 78 13.7548 5.8689 19.5771 6.7268 0.0000 1.4669
479 78 13.7046 3.8754 21.6029 5.5738 0.0000 1.4723
480 78 11.7379 5.7852 21.6354 5.3914 0.0000 1.7107
481 78 11.7411 7.8905 -0.0204 5.9425 0.0000 1.4001
482 78 13.7441 9.7884 -0.0515 6.9638 0.0000 1.3193
483 78 13.7929 7.8864 1.9561 5.8592 0.0000 1.5019
484 78 11.8140 9.7409 2.0699 6.5372 0.0000 1.7144
485 78 11.8109 7.8877 3.8639 6.2992 0.0000 1.5918
486 78 13.8121 9.8932 3.9051 6.4015 0.0000 1.4019
487 78 13.6834 7.8540 5.8542 6.7164 0.0000 1.5392
488 78 11.7025 9.8347 5.9273 6.3081 0.0000 1.5172
489 78 11.7222 7.7686 7.7989 6.0231 0.0000 1.4856
490 78 13.7424 9.7069 7.8757 7.1269 0.0000 1.3520
491 78 13.7278 7.8384 9.7307 6.1305 0.0000 1.4921
492 78 11.7482 9.8199 9.7689 5.5544 0.0000 1.5386
493 78 11.7915 7.8704 11.7927 6.4925 0.0000 1.5031
494 78 13.7942 9.8589 11.7765 7.2007 0.0000 1.3124
495 78 13.6994 7.8362 13.7715 5.9233 0.0000 1.3695
496 78 11.8641 9.7930 13.7835 7.8569 0.0000 1.7023
497 78 11.8719 7.9118 15.7065 7.4978 0.0000 1.3744
498 78 13.7787 9.7183 15.6788 6.2850 0.0000 1.4401
499 78 13.7108 7.8786 17.6415 7.6946 0.0000 1.4016
500 78 11.8718 9.6959 17.7274 5.6636 0.0000 1.7186
501 78 11.8141 7.8627 19.6450 6.9548 0.0000 1.5813
502 78 13.7671 9.7481 19.5346 7.2542 0.0000 1.5639
503 78 13.6971 7.8761 21.5846 7.0518 0.0000 1.4149
504 78 11.8381 9.7653 21.5625 7.1361 0.0000 1.6071
505 78 11.7202 11.7226 -0.0255 6.8235 0.0000 1.5256
506 78 13.7569 13.6593 0.0470 6.4398 0.0000 1.6889
507 78 13.7132 11.7482 2.0223 6.0663 0.0000 1.4235
508 78 11.7422 13.7725 1.8708 7.5227 0.0000 1.3208
509 78 11.8450 11.7266 3.9264 7.9592 0.0000 1.4019
510 78 13.7323 13.7215 4.0156 7.7119 0.0000 1.4302
511 78 13.6555 11.7331 5.9025 6.5575 0.0000 1.2978
512 78 11.7548 13.7966 5.9292 6.7517 0.0000 1.4769
513 78 11.6503 11.7341 7.8497 7.6558 0.0000 1.6313
514 78 13.6987 13.7187 7.8249 7.6349 0.0000 1.4428
515 78 13.6552 11.7790 9.8396 6.4328 0.0000 1.5377
516 78 11.8233 13.6940 9.7584 6.9526 0.0000 1.3971
517 78 11.7003 11.7983 11.7816 5.7758 0.0000 1.3932
518 78 13.7545 13.7764 11.7392 7.2019 0.0000 1.5212
519 78 13.7133 11.6957 13.7607 5.8987 0.0000 1.5219
520 78 11.7793 13.7727 13.6840 5.7299 0.0000 1.5674
521 78 11.7861 11.7490 15.7592 6.3652 0.0000 1.5946
522 78 13.6594 13.7642 15.7849 5.8338 0.0000 1.4769
523 78 13.6312 11.7759 17.5880 7.5807 0.0000 1.4697
524 78 11.8164 13.6958 17.6410 6.3564 0.0000 1.3136
525 78 11.7568 11.7038 19.5882 5.3919 0.0000 1.6089
526 78 13.8108 13.8340 19.5678 7.1244 0.0000 1.4716
527 78 13.8126 11.6813 21.5607 5.8566 0.0000 1.7277
528 78 11.6840 13.7189 21.5945 6.9049 0.0000 1.7198
529 78 11.7030 15.6743 0.0037 6.7221 0.0000 1.3195
530 78 13.7617 17.6759 0.0026 7.6668 0.0000 1.3884
531 78 13.7528 15.6824 1.9923 6.2042 0.0000 1.5894
532 78 11.7150 17.5745 1.9874 6.5671 0.0000 1.4595
533 78 11.7971 15.7170 3.9353 7.2848 0.0000 1.3282
534 78 13.7464 17.6937 3.9164 5.5807 0.0000 1.6409
535 78 13.7591 15.7767 5.8398 5.7951 0.0000 1.6537
536 78 11.7186 17.6734 5.9385 7.8794 0.0000 1.4185
537 78 11.7363 15.5728 7.8500 6.8600 0.0000 1.5319
538 78 13.6221 17.6411 7.8621 7.5681 0.0000 1.3930
539 78 13.7845 15.6647 9.7997 6.5369 0.0000 1.5445
540 78 11.7990 17.6914 9.7904 6.5535 0.0000 1.3465
541 78 11.7518 15.7714 11.7401 6.4914 0.0000 1.3911
542 78 13.7512 17.5292 11.7277 7.7480 0.0000 1.6693
543 78 13.6846 15.6829 13.7780 6.4048 0.0000 1.6498
544 78 11.7950 17.7688 13.6799 5.4415 0.0000 1.3054
545 78 11.8188 15.7290 15.7588 5.8624 0.0000 1.3832
546 78 13.7682 17.5778 15.6946 7.8641 0.0000 1.5044
547 78 13.7561 15.6814 17.5940 7.5101 0.0000 1.5297
548 78 11.7006 17.6343 17.6247 7.0559 0.0000 1.4433
549 78 11.7520 15.6718 19.5895 6.8229 0.0000 1.4619
550 78 13.8408 17.6495 19.6017 7.4873 0.0000 1.7034
551 78 13.7354 15.7396 21.4970 5.8718 0.0000 1.4712
552 78 11.7723 17.6121 21.5786 6.6725 0.0000 1.3346
553 78 11.7653 19.6575 -0.0699 6.6436 0.0000 1.3326
554 78 13.7090 21.5550 0.0083 7.5671 0.0000 1.6432
555 78 13.7304 19.5617 1.9757 6.7038 0.0000 1.3581
556 78 11.7285 21.5133 1.9306 6.5751 0.0000 1.5394
557 78 11.8536 19.6152 3.9077 7.9785 0.0000 1.4194
558 78 13.7138 21.5682 3.9381 7.2358 0.0000 1.4667
559 78 13.7830 19.6786 5.8474 5.9657 0.0000 1.5321
560 78 11.7594 21.5712 5.8607 6.7726 0.0000 1.5436
561 78 11.7673 19.6290 7.8252 5.5043 0.0000 1.4108
562 78 13.6684 21.5307 7.8134 6.6197 0.0000 1.3383
563 78 13.6231 19.6155 9.8820 7.4008 0.0000 1.4485
564 78 11.8287 21.5660 9.7277 6.2045 0.0000 1.3075
565 78 11.7848 19.6371 11.7544 5.9768 0.0000 1.7087
566 78 13.7309 21.5769 11.7791 6.0602 0.0000 1.6883
567 78 13.7018 19.6109 13.8156 7.5367 0.0000 1.3242
568 78 11.7926 21.6022 13.7322 7.5681 0.0000 1.7172
569 78 11.7939 19.6945 15.6558 6.0509 0.0000 1.5048
570 78 13.7550 21.6690 15.7220 6.2904 0.0000 1.5084
571 78 13.6884 19.5586 17.5503 5.5683 0.0000 1.7233
572 78 11.7512 21.5955 17.6923 5.6717 0.0000 1.3644
573 78 11.8701 19.6458 19.5081 6.4552 0.0000 1.3941
574 78 13.7392 21.5494 19.4996 7.5579 0.0000 1.3878
575 78 13.7943 19.5598 21.5750 5.9100 0.0000 1.4920
576 78 11.7593 21.4772 21.6281 5.8171 0.0000 1.6632
577 78 15.6594 0.0196 0.0468 6.5785 0.0000 1.3091
578 78 17.7260 1.9333 -0.0898 7.6835 0.0000 1.5055
579 78 17.5627 0.0321 1.9642 6.5164 0.0000 1.7218
580 78 15.6964 1.9701 2.0271 6.1937 0.0000 1.3098
581 78 15.7585 0.0486 3.9924 6.5282 0.0000 1.3017
582 78 17.6218 1.8999 3.9513 6.2168 0.0000 1.7161
583 78 17.6428 -0.0169 5.8604 7.0653 0.0000 1.5891
584 78 15.6972 1.9675 5.8641 7.5042 0.0000 1.4974
585 78 15.7400 -0.0255 7.7613 6.2109 0.0000 1.6618
586 78 17.6905 1.8586 7.8884 7.4165 0.0000 1.7023
587 78 17.5545 -0.0700 9.8642 7.9283 0.0000 1.3833
588 78 15.6758 2.0764 9.7445 7.7338 0.0000 1.5679
589 78 15.7259 -0.0968 11.7996 5.4289 0.0000 1.4401
590 78 17.7065 1.9498 11.6886 6.3051 0.0000 1.6351
591 78 17.6109 -0.0380 13.7298 6.8294 0.0000 1.7160
592 78 15.7453 1.9692 13.6951 5.7182 0.0000 1.4072
593 78 15.6858 0.0635 15.6447 6.3415 0.0000 1.3182
594 78 17.5811 2.0776 15.6503 5.9600 0.0000 1.7304