ITEM: TIMESTEP
0
ITEM: NUMBER OF ATOMS
1024
ITEM: BOX BOUNDS pp pp pp
0.0 22.9360
0.0 22.9360
0.0 22.9360
ITEM: ATOMS id type x y z error strain stiffness
1 26 -0.0281 -0.0170 0.0085 5.1835 0.0000 6.1476
2 26 1.4214 1.4139 1.4013 3.8086 0.0000 5.4490
3 26 -0.0090 -0.0520 2.9290 4.5993 0.0000 5.2915
4 26 1.4414 1.4412 4.3011 4.9146 0.0000 5.7669
5 26 0.0268 0.0113 5.7371 4.2249 0.0000 6.3433
6 26 1.4723 1.4393 7.2169 4.3193 0.0000 5.5051
7 26 0.0096 0.0265 8.6119 5.5050 0.0000 5.2825
8 26 1.4157 1.4555 10.0059 4.3948 0.0000 5.4873
9 26 0.0172 0.0125 11.4843 5.2563 0.0000 6.0778
10 26 1.4720 1.4072 12.8536 3.8407 0.0000 5.1883
11 26 0.0057 -0.0146 14.3298 5.0821 0.0000 6.2804
12 26 1.4346 1.4345 15.7752 4.5079 0.0000 5.9024
13 26 0.0589 0.0092 17.2173 5.2280 0.0000 6.6012
14 26 1.4075 1.4413 18.6588 3.8231 0.0000 6.4592
15 26 -0.0014 0.0021 20.0918 4.6759 0.0000 6.3856
16 26 1.3626 1.4500 21.4836 4.7045 0.0000 5.7653
17 26 -0.0604 2.8054 -0.0305 4.5575 0.0000 6.0496
18 26 1.4422 4.3029 1.4411 4.1738 0.0000 6.3000
19 26 -0.0105 2.8803 2.8523 5.0061 0.0000 6.4625
20 26 1.4337 4.2924 4.3062 4.3408 0.0000 6.3728
21 26 0.0505 2.8872 5.7143 4.1166 0.0000 5.8482
22 26 1.4546 4.3034 7.1739 4.2848 0.0000 6.1017
23 26 -0.0312 2.8376 8.5899 4.3032 0.0000 5.8933
24 26 1.4218 4.3349 10.0738 3.9258 0.0000 6.6967
25 26 0.0044 2.8461 11.4955 5.2664 0.0000 6.4078
26 26 1.4253 4.3081 12.9128 4.7137 0.0000 6.0308
27 26 -0.0209 2.9280 14.3309 4.2489 0.0000 5.2460
28 26 1.4029 4.2821 15.7460 4.5970 0.0000 6.5895
29 26 0.0321 2.9119 17.2150 4.2683 0.0000 6.6476
30 26 1.4368 4.3171 18.6594 5.3037 0.0000 5.1475
31 26 0.0127 2.8528 20.0597 5.2657 0.0000 5.2541
32 26 1.4346 4.2953 21.4577 5.5780 0.0000 6.4094
33 26 -0.0447 5.7902 -0.0560 5.2701 0.0000 5.3463
34 26 1.4370 7.2179 1.4125 4.4897 0.0000 6.1516
35 26 0.0022 5.6878 2.9071 5.2999 0.0000 5.3411
36 26 1.3894 7.1298 4.2736 3.7289 0.0000 5.1195
37 26 0.0170 5.7294 5.7235 5.0492 0.0000 6.0890
38 26 1.4241 7.1256 7.2237 4.0215 0.0000 6.5098
39 26 -0.0260 5.6941 8.6124 5.0848 0.0000 5.4217
40 26 1.4520 7.1170 10.0073 3.7658 0.0000 5.2252
41 26 -0.0238 5.7136 11.4310 5.1004 0.0000 5.5220
42 26 1.4420 7.1121 12.9433 4.8924 0.0000 5.1471
43 26 0.0286 5.7677 14.2952 4.1668 0.0000 5.9002
44 26 1.4721 7.1497 15.7814 3.9216 0.0000 6.3146
45 26 0.0706 5.7794 17.2152 4.0187 0.0000 6.6052
46 26 1.4550 7.1685 18.5856 4.2892 0.0000 6.2138
47 26 0.0020 5.7430 20.1166 5.3263 0.0000 5.7323
48 26 1.4105 7.1740 21.4916 3.7451 0.0000 5.8769
49 26 -0.0282 8.6071 -0.0151 4.8253 0.0000 5.4765
50 26 1.4298 10.0365 1.4706 4.8870 0.0000 6.8050
51 26 0.0029 8.5562 2.8783 5.2290 0.0000 5.0964
52 26 1.4231 10.0426 4.2920 5.1340 0.0000 6.0265
53 26 0.0146 8.6111 5.7810 3.8111 0.0000 6.3752
54 26 1.4701 10.1076 7.0940 4.6988 0.0000 5.4586
55 26 0.0253 8.6174 8.5865 4.8482 0.0000 5.5692
56 26 1.4691 10.0319 10.0156 5.4515 0.0000 5.2323
57 26 0.0159 8.5942 11.5116 4.5343 0.0000 6.6718
58 26 1.4276 10.0014 12.8520 4.2994 0.0000 6.0994
59 26 0.0124 8.5961 14.3352 4.0538 0.0000 6.7235
60 26 1.4599 10.0280 15.7569 5.0679 0.0000 6.4500
61 26 0.0082 8.6425 17.2310 4.2166 0.0000 6.1874
62 26 1.4421 10.0201 18.6293 5.2295 0.0000 5.5588
63 26 0.0558 8.6040 20.0754 4.1251 0.0000 5.2794
64 26 1.4125 10.0384 21.4956 4.9358 0.0000 5.9728
65 26 -0.0436 11.4519 0.0432 4.6891 0.0000 6.5989
66 26 1.4593 12.8577 1.4822 3.9392 0.0000 6.5769
67 26 0.0295 11.4528 2.8656 5.3354 0.0000 5.4778
68 26 1.4035 12.8625 4.3074 4.4048 0.0000 5.9466
69 26 0.0222 11.4583 5.7416 5.3985 0.0000 6.3784
70 26 1.4245 12.8997 7.1570 3.7486 0.0000 5.8298
71 26 0.0238 11.4413 8.5940 4.4765 0.0000 5.3602
72 26 1.4532 12.9147 10.0176 3.9215 0.0000 5.9530
73 26 0.0473 11.4689 11.4890 3.8954 0.0000 6.3754
74 26 1.4517 12.9535 12.8903 5.5821 0.0000 6.1884
75 26 -0.0198 11.4439 14.3276 4.5639 0.0000 6.2026
76 26 1.4061 12.9215 15.7932 4.4878 0.0000 5.3386
77 26 -0.0295 11.4738 17.2075 5.5296 0.0000 5.9034
78 26 1.4314 12.9051 18.6588 4.8572 0.0000 6.4779
79 26 0.0047 11.4427 20.0611 4.4415 0.0000 5.4392
80 26 1.4576 12.8898 21.5530 4.2900 0.0000 5.3787
81 26 0.0227 14.3360 -0.0528 5.3349 0.0000 5.9658
82 26 1.4510 15.7488 1.4532 4.6556 0.0000 6.1749
83 26 0.0225 14.3629 2.8740 4.1004 0.0000 6.0499
84 26 1.4841 15.7675 4.2919 4.7171 0.0000 5.2304
85 26 -0.0252 14.3560 5.7409 5.4351 0.0000 6.3551
86 26 1.4686 15.8029 7.1682 4.5534 0.0000 6.0126
87 26 -0.0006 14.3187 8.6096 4.6516 0.0000 5.6447
88 26 1.5029 15.7620 10.0187 4.7794 0.0000 6.0644
89 26 -0.0011 14.3390 11.4826 4.0088 0.0000 6.2650
90 26 1.3987 15.7712 12.8936 3.9681 0.0000 5.7327
91 26 0.0042 14.3360 14.3808 4.8459 0.0000 5.1239
92 26 1.3782 15.7962 15.7728 4.7936 0.0000 6.8009
93 26 -0.0372 14.2887 17.1868 4.1167 0.0000 6.1723
94 26 1.4348 15.7939 18.6626 5.0583 0.0000 6.7888
95 26 0.0183 14.3075 20.0675 5.0019 0.0000 5.7561
96 26 1.4290 15.8035 21.4816 4.6065 0.0000 6.5875
97 26 -0.0262 17.2199 -0.0243 3.7792 0.0000 6.0043
98 26 1.4263 18.6585 1.4287 4.8492 0.0000 6.5937
99 26 0.0241 17.2025 2.8692 5.0587 0.0000 6.3844
100 26 1.4277 18.6472 4.3065 4.2632 0.0000 5.6223
101 26 -0.0147 17.2112 5.7374 4.5427 0.0000 6.2997
102 26 1.4262 18.6241 7.1613 4.9288 0.0000 6.4214
103 26 0.0056 17.2170 8.6174 4.5670 0.0000 5.2009
104 26 1.3874 18.5917 10.0195 5.5060 0.0000 5.6860
105 26 -0.0086 17.1860 11.4806 4.4295 0.0000 5.8202
106 26 1.4475 18.6563 12.8870 4.3564 0.0000 6.5343
107 26 0.0178 17.2140 14.3211 5.2943 0.0000 5.4402
108 26 1.4265 18.5993 15.7978 3.8171 0.0000 5.4598
109 26 0.0172 17.1787 17.2312 4.1113 0.0000 6.4126
110 26 1.4194 18.6712 18.6174 5.4677 0.0000 6.7833
111 26 0.0266 17.2116 20.0522 5.0037 0.0000 5.4367
112 26 1.4379 18.6587 21.5157 5.0830 0.0000 6.1985
113 26 -0.0236 20.0444 0.0158 4.0201 0.0000 6.2550
114 26 1.4438 21.5089 1.4911 5.1394 0.0000 6.7328
115 26 -0.0224 20.0866 2.8478 3.8083 0.0000 6.1725
116 26 1.4086 21.5427 4.3024 4.2634 0.0000 5.4848
117 26 0.0162 20.0500 5.6921 4.6565 0.0000 5.6604
118 26 1.4433 21.4780 7.1606 3.9106 0.0000 5.5445
119 26 -0.0096 20.0660 8.5954 5.2418 0.0000 5.4976
120 26 1.4271 21.5022 10.0467 4.6366 0.0000 6.2048
121 26 0.0012 20.0349 11.4713 5.4185 0.0000 5.9122
122 26 1.4491 21.4890 12.9300 5.0036 0.0000 5.7991
123 26 0.0077 20.0186 14.3529 5.2848 0.0000 6.6320
124 26 1.4165 21.4912 15.8192 4.9441 0.0000 6.3630
125 26 -0.0199 20.0829 17.1897 4.4448 0.0000 6.5370
126 26 1.4542 21.4275 18.6352 5.5646 0.0000 6.0263
127 26 -0.0500 20.0582 20.0467 4.9994 0.0000 5.1423
128 26 1.4400 21.5148 21.5121 4.9433 0.0000 6.6877
129 26 2.8500 -0.0109 -0.0121 4.7218 0.0000 5.2343
130 26 4.2999 1.3874 1.4350 5.1980 0.0000 5.3977
131 26 2.8401 0.0275 2.8788 5.2292 0.0000 5.3270
132 26 4.3370 1.4612 4.2831 4.5376 0.0000 5.1265
133 26 2.8991 -0.0256 5.6838 4.2054 0.0000 5.0435
134 26 4.3613 1.4441 7.1533 4.0921 0.0000 5.6643
135 26 2.8396 -0.0043 8.6409 3.9804 0.0000 5.3567
136 26 4.2795 1.4360 10.0151 4.0932 0.0000 6.0070
137 26 2.8848 0.0235 11.4937 4.8248 0.0000 6.6282
138 26 4.2574 1.4611 12.8909 3.9927 0.0000 5.5377
139 26 2.8802 -0.0048 14.3180 4.6762 0.0000 6.7424
140 26 4.2259 1.4605 15.7829 5.0797 0.0000 5.5724
141 26 2.8253 0.0198 17.2169 4.5455 0.0000 5.3041
142 26 4.3022 1.4254 18.5891 4.8117 0.0000 5.5953
143 26 2.8429 0.0144 20.0698 3.7715 0.0000 6.6105
144 26 4.3111 1.4115 21.5500 4.3301 0.0000 6.4060
145 26 2.8515 2.8003 0.0022 5.0361 0.0000 5.6002
146 26 4.3141 4.2784 1.4261 4.0694 0.0000 5.8644
147 26 2.8790 2.8920 2.8902 4.5890 0.0000 5.9159
148 26 4.3480 4.3145 4.3225 5.2459 0.0000 5.6452
149 26 2.8503 2.8254 5.7433 3.9773 0.0000 5.2732
150 26 4.3065 4.3284 7.2200 4.5439 0.0000 6.0690
151 26 2.8528 2.8717 8.6475 3.9183 0.0000 5.1108
152 26 4.2182 4.2819 10.0616 4.5685 0.0000 6.6082
153 26 2.8603 2.8762 11.5284 5.5072 0.0000 5.9948
154 26 4.2994 4.2708 12.8818 4.8061 0.0000 6.2712
155 26 2.8821 2.8289 14.3095 4.9093 0.0000 5.4262
156 26 4.2505 4.2699 15.7835 3.7715 0.0000 5.2885
157 26 2.9018 2.8548 17.2443 4.4203 0.0000 5.0955
158 26 4.3197 4.2637 18.6743 4.7754 0.0000 6.5099
159 26 2.8216 2.8583 20.0397 4.3409 0.0000 6.6911
160 26 4.3126 4.2856 21.5275 4.5933 0.0000 6.5541
161 26 2.8545 5.7444 0.0333 5.1319 0.0000 5.2241
162 26 4.3215 7.1955 1.4344 4.1975 0.0000 6.0546
163 26 2.9047 5.7229 2.8408 4.9965 0.0000 6.3972
164 26 4.3502 7.1953 4.2871 3.9660 0.0000 5.1091
165 26 2.8694 5.7240 5.7033 3.8606 0.0000 5.0684
166 26 4.3064 7.1940 7.1803 5.3329 0.0000 6.1105
167 26 2.8672 5.7182 8.6422 5.0715 0.0000 6.5242
168 26 4.2996 7.1354 10.0434 4.6856 0.0000 5.0455
169 26 2.9065 5.7584 11.4471 5.2469 0.0000 5.5031
170 26 4.2996 7.2060 12.8748 5.3352 0.0000 5.6509
171 26 2.9131 5.7385 14.3526 5.0523 0.0000 5.4730
172 26 4.3580 7.1622 15.7744 4.6515 0.0000 5.7445
173 26 2.8366 5.7108 17.2203 4.3709 0.0000 5.4185
174 26 4.2753 7.1481 18.6429 4.4955 0.0000 6.0558
175 26 2.8905 5.7442 20.0511 5.1016 0.0000 5.0561
176 26 4.2600 7.2092 21.4860 4.6936 0.0000 6.6794
177 26 2.9219 8.5929 0.0065 5.4790 0.0000 5.6548
178 26 4.3365 10.0301 1.4455 4.3344 0.0000 5.8437
179 26 2.8915 8.5831 2.8628 3.9470 0.0000 6.2828
180 26 4.2883 10.0264 4.3228 4.7043 0.0000 5.5118
181 26 2.8294 8.5619 5.7462 4.3482 0.0000 6.0524
182 26 4.3013 10.0564 7.2121 4.8312 0.0000 6.5137
183 26 2.8743 8.6259 8.5961 4.1527 0.0000 6.6312
184 26 4.2999 10.0332 10.0683 5.3480 0.0000 5.2646
185 26 2.8297 8.5915 11.4578 4.2224 0.0000 6.4608
186 26 4.2976 10.0823 12.8707 5.1327 0.0000 5.4838
187 26 2.8209 8.5750 14.3116 5.3264 0.0000 5.4437
188 26 4.2484 10.0325 15.7383 3.7445 0.0000 5.1085
189 26 2.8418 8.6075 17.1951 4.3717 0.0000 5.3733
190 26 4.3208 10.1004 18.6407 4.7499 0.0000 6.3142
191 26 2.8890 8.5891 20.0433 4.0445 0.0000 6.7578
192 26 4.3086 10.0356 21.5345 4.4552 0.0000 5.2114
193 26 2.8874 11.4812 0.0331 4.5967 0.0000 6.1947
194 26 4.3301 12.9351 1.3873 5.5311 0.0000 5.8103
195 26 2.8491 11.4383 2.9032 4.9608 0.0000 5.9795
196 26 4.2813 12.8699 4.3051 4.4628 0.0000 6.1617
197 26 2.8797 11.4038 5.7177 5.0529 0.0000 5.8296
198 26 4.3419 12.8819 7.1443 3.8812 0.0000 5.4229
199 26 2.8455 11.4384 8.6040 4.1515 0.0000 5.0605
200 26 4.3443 12.9164 10.0062 4.9575 0.0000 5.2111
201 26 2.8317 11.4417 11.4823 3.7230 0.0000 5.3151
202 26 4.3101 12.8883 12.9579 4.3357 0.0000 5.9764
203 26 2.8898 11.4520 14.3120 4.4622 0.0000 6.5441
204 26 4.3112 12.8877 15.7646 5.2584 0.0000 5.8059
205 26 2.8551 11.4907 17.2084 4.2019 0.0000 6.0478
206 26 4.2566 12.8542 18.6662 4.9480 0.0000 5.4858
207 26 2.8537 11.4997 20.0754 4.8716 0.0000 5.3064
208 26 4.2427 12.9777 21.5030 4.9303 0.0000 5.4597
209 26 2.8609 14.2692 -0.0456 5.5644 0.0000 6.0329
210 26 4.2934 15.8200 1.3911 5.0433 0.0000 5.2416
211 26 2.9059 14.3373 2.8567 3.7965 0.0000 6.1060
212 26 4.3048 15.7707 4.3222 4.8476 0.0000 5.7368
213 26 2.8431 14.3202 5.7562 5.0769 0.0000 6.4715
214 26 4.2810 15.7833 7.1437 5.2798 0.0000 5.9737
215 26 2.8687 14.3118 8.6245 4.5428 0.0000 5.8226
216 26 4.2758 15.7955 10.0824 5.4338 0.0000 5.8099
217 26 2.8985 14.3305 11.4680 3.7971 0.0000 6.0682
218 26 4.3494 15.7600 12.9119 4.2378 0.0000 5.0961
219 26 2.8593 14.3766 14.2993 5.2018 0.0000 6.2336
220 26 4.3212 15.7614 15.7602 4.8059 0.0000 5.7569
221 26 2.8485 14.3230 17.1794 4.3698 0.0000 6.3044
222 26 4.2669 15.7609 18.5939 5.1909 0.0000 6.5732
223 26 2.8857 14.2955 20.0908 4.7303 0.0000 6.7778
224 26 4.3101 15.7903 21.5123 4.8749 0.0000 5.5893
225 26 2.8744 17.2228 0.0110 4.3738 0.0000 6.3404
226 26 4.3242 18.6407 1.4573 5.2002 0.0000 6.1760
227 26 2.8378 17.1841 2.8639 4.7515 0.0000 5.1235
228 26 4.3051 18.7037 4.3639 3.8796 0.0000 5.4779
229 26 2.8401 17.1313 5.7672 4.2280 0.0000 6.5034
230 26 4.2679 18.6569 7.1933 4.4671 0.0000 6.7840
231 26 2.8608 17.1622 8.5876 4.1829 0.0000 6.1650
232 26 4.2943 18.6185 10.0074 4.2531 0.0000 6.5177
233 26 2.8522 17.1825 11.4858 4.7917 0.0000 5.2793
234 26 4.3219 18.6333 12.9300 5.1849 0.0000 6.7638
235 26 2.8603 17.1591 14.2799 5.5360 0.0000 6.8036
236 26 4.2978 18.6433 15.7605 4.1635 0.0000 6.4454
237 26 2.9037 17.1850 17.1740 5.4832 0.0000 6.7546
238 26 4.3094 18.6749 18.6396 3.9094 0.0000 5.4292
239 26 2.8873 17.1864 20.0725 5.4216 0.0000 5.9412
240 26 4.2894 18.6769 21.5338 4.6790 0.0000 5.4863
241 26 2.9188 20.0597 -0.0345 4.2197 0.0000 6.2024
242 26 4.3095 21.4716 1.4536 5.2288 0.0000 5.2303
243 26 2.8425 20.0709 2.8901 4.2872 0.0000 5.4740
244 26 4.3378 21.5516 4.2837 5.3817 0.0000 5.4195
245 26 2.8733 20.0320 5.6919 4.5936 0.0000 6.5117
246 26 4.3217 21.4510 7.1456 4.3183 0.0000 6.4920
247 26 2.8567 20.0417 8.5769 4.1446 0.0000 5.8024
248 26 4.2566 21.5070 10.0539 5.2306 0.0000 6.5792
249 26 2.8691 20.1197 11.4465 4.4142 0.0000 6.0143
250 26 4.2825 21.4577 12.8665 3.8717 0.0000 5.9542
251 26 2.9059 20.1037 14.3532 5.2668 0.0000 5.7934
252 26 4.3187 21.5389 15.7599 5.1682 0.0000 5.8006
253 26 2.8825 20.0820 17.1659 4.1675 0.0000 6.1896
254 26 4.3122 21.5014 18.5818 5.5412 0.0000 5.3632
255 26 2.8447 20.0570 20.0567 4.8410 0.0000 5.2311
256 26 4.3055 21.4984 21.4624 4.2803 0.0000 5.9921
257 26 5.7764 -0.0157 -0.0043 4.5281 0.0000 5.5258
258 26 7.1797 1.4485 1.4279 3.7747 0.0000 5.6904
259 26 5.7328 -0.0130 2.8767 4.2370 0.0000 5.3522
260 26 7.1572 1.4515 4.2974 3.9098 0.0000 5.1214
261 26 5.7455 -0.0047 5.6723 4.2192 0.0000 5.7305
262 26 7.2083 1.3886 7.1252 5.5525 0.0000 5.5978
263 26 5.7264 0.0105 8.5943 4.6981 0.0000 5.0747
264 26 7.1932 1.4344 10.0390 5.1591 0.0000 5.2089
265 26 5.7376 0.0343 11.4769 5.1259 0.0000 6.6100
266 26 7.1975 1.4471 12.9008 4.6686 0.0000 6.4746
267 26 5.7633 0.0044 14.3429 4.1306 0.0000 5.9814
268 26 7.1500 1.4422 15.7755 4.4423 0.0000 5.9953
269 26 5.7258 0.0162 17.2309 5.3759 0.0000 6.7293
270 26 7.1348 1.4473 18.6974 5.1467 0.0000 5.7256
271 26 5.7212 0.0064 20.0873 4.8227 0.0000 5.9172
272 26 7.1307 1.4502 21.4675 5.3634 0.0000 6.0619
273 26 5.7632 2.8014 0.0441 5.3966 0.0000 6.1672
274 26 7.1868 4.3317 1.4272 5.3677 0.0000 6.7580
275 26 5.7043 2.8726 2.8993 5.3336 0.0000 6.7671
276 26 7.1855 4.3300 4.2885 4.9235 0.0000 5.4259
277 26 5.7244 2.8673 5.7308 4.5397 0.0000 5.3302
278 26 7.1448 4.2980 7.1279 4.0699 0.0000 5.8837
279 26 5.7444 2.8383 8.6319 3.8037 0.0000 5.7226
280 26 7.1492 4.2736 10.0898 3.7998 0.0000 5.7152
281 26 5.7496 2.8225 11.4477 4.9452 0.0000 6.5606
282 26 7.1923 4.2313 12.9186 4.7900 0.0000 5.1287
283 26 5.7151 2.8700 14.3414 4.7524 0.0000 6.0814
284 26 7.1732 4.3074 15.7318 4.2106 0.0000 6.1863
285 26 5.7450 2.8873 17.2184 5.3205 0.0000 5.5033
286 26 7.1587 4.3289 18.6579 4.7081 0.0000 5.2328
287 26 5.7699 2.8762 20.0503 4.8754 0.0000 6.2949
288 26 7.1652 4.2263 21.4567 3.8134 0.0000 5.9669
289 26 5.7522 5.7668 0.0035 4.5069 0.0000 5.6200
290 26 7.2105 7.1575 1.4124 5.5207 0.0000 5.8951
291 26 5.7329 5.6857 2.8900 4.1806 0.0000 5.4221
292 26 7.1627 7.1833 4.2882 3.7976 0.0000 5.0953
293 26 5.7249 5.7157 5.6953 4.9467 0.0000 5.5951
294 26 7.1969 7.1923 7.1553 3.9713 0.0000 5.8364
295 26 5.7484 5.7129 8.5785 3.8349 0.0000 5.5838
296 26 7.1769 7.2268 10.0171 5.2361 0.0000 6.7728
297 26 5.7476 5.7377 11.4675 4.9411 0.0000 6.3050
298 26 7.1600 7.1438 12.9196 5.2016 0.0000 6.2630
299 26 5.7542 5.6839 14.3340 4.7181 0.0000 6.2052
300 26 7.1861 7.1578 15.7124 5.3145 0.0000 6.3642
301 26 5.7420 5.7313 17.1540 5.4283 0.0000 6.2728
302 26 7.1541 7.1546 18.6312 4.2935 0.0000 6.6348
303 26 5.6745 5.7378 20.0872 5.2683 0.0000 5.3523
304 26 7.1537 7.1349 21.5048 4.8093 0.0000 5.1195
305 26 5.7401 8.6216 -0.0002 4.8320 0.0000 5.0658
306 26 7.1595 10.0794 1.4421 4.4263 0.0000 5.8889
307 26 5.7950 8.6135 2.8608 4.7653 0.0000 6.0510
308 26 7.1819 10.1159 4.3184 4.9819 0.0000 5.9514
309 26 5.7508 8.5847 5.7107 4.5295 0.0000 5.4920
310 26 7.1855 10.0167 7.1422 4.7258 0.0000 5.4820
311 26 5.7680 8.6489 8.6247 4.7249 0.0000 5.9202
312 26 7.1684 10.0385 10.0369 4.6050 0.0000 5.5802
313 26 5.7473 8.6021 11.4746 4.8884 0.0000 5.2603
314 26 7.1319 10.0791 12.8981 3.7393 0.0000 6.5951
315 26 5.7380 8.6046 14.3331 5.4892 0.0000 5.5356
316 26 7.0935 10.0027 15.7462 3.7584 0.0000 6.0579
317 26 5.7087 8.5660 17.2140 4.5306 0.0000 5.8458
318 26 7.1829 10.0608 18.6311 3.9085 0.0000 6.3600
319 26 5.7344 8.5567 20.0348 4.5703 0.0000 6.5346
320 26 7.1976 10.0162 21.4612 4.9728 0.0000 5.9328
321 26 5.7616 11.4080 0.0227 5.1818 0.0000 5.7590
322 26 7.1842 12.9414 1.4105 3.9527 0.0000 5.9607
323 26 5.7229 11.4434 2.8763 4.6750 0.0000 5.0774
324 26 7.1686 12.9508 4.3231 4.5188 0.0000 6.3304
325 26 5.7798 11.4226 5.7127 4.7306 0.0000 6.0571
326 26 7.2002 12.9297 7.1926 5.4973 0.0000 5.3542
327 26 5.7281 11.4701 8.6561 4.6077 0.0000 6.6094
328 26 7.1734 12.9213 9.9884 4.3614 0.0000 6.5636
329 26 5.7517 11.4765 11.4666 4.9905 0.0000 6.1257
330 26 7.1456 12.9159 12.8828 4.1758 0.0000 5.8863
331 26 5.7079 11.4645 14.3371 4.5480 0.0000 5.2862
332 26 7.1208 12.8957 15.7707 4.5617 0.0000 6.2635
333 26 5.6961 11.4279 17.2179 4.3826 0.0000 5.2289
334 26 7.0891 12.9337 18.6428 5.3554 0.0000 5.6544
335 26 5.7457 11.4564 20.0387 4.5821 0.0000 6.6815
336 26 7.1588 12.9036 21.4456 4.7329 0.0000 5.2435
337 26 5.7519 14.2918 -0.0158 4.3488 0.0000 5.3543
338 26 7.1742 15.7600 1.4481 3.9789 0.0000 6.0361
339 26 5.7813 14.2826 2.9000 5.4716 0.0000 6.5214
340 26 7.1740 15.7995 4.3385 5.5466 0.0000 5.0633
341 26 5.7378 14.3708 5.7389 4.6294 0.0000 6.2788
342 26 7.1952 15.8225 7.1784 4.5015 0.0000 5.8555
343 26 5.7217 14.3440 8.6188 5.5236 0.0000 5.5400
344 26 7.1606 15.7301 10.0831 4.2629 0.0000 5.8535
345 26 5.7770 14.3425 11.3886 4.2602 0.0000 5.3150
346 26 7.1487 15.7247 12.8870 3.9905 0.0000 6.1631
347 26 5.7221 14.3194 14.3513 5.2380 0.0000 6.4140
348 26 7.1720 15.7231 15.8166 5.3298 0.0000 5.8157
349 26 5.7726 14.3308 17.1802 5.5840 0.0000 6.5112
350 26 7.1625 15.8113 18.6329 3.8881 0.0000 5.4144
351 26 5.7523 14.3197 20.0759 4.9374 0.0000 6.2530
352 26 7.1635 15.7456 21.5054 3.9866 0.0000 5.7124
353 26 5.7768 17.2492 0.0464 5.1667 0.0000 6.6051
354 26 7.2014 18.6728 1.4429 3.8417 0.0000 5.7792
355 26 5.7745 17.2279 2.8462 4.2118 0.0000 6.0146
356 26 7.1712 18.5703 4.3315 4.4630 0.0000 6.4358
357 26 5.7565 17.1580 5.7327 3.8542 0.0000 6.3753
358 26 7.1774 18.6506 7.2547 3.9751 0.0000 5.9833
359 26 5.7504 17.1825 8.6484 4.4377 0.0000 5.1913
360 26 7.1533 18.6509 10.0221 4.5031 0.0000 6.3715
361 26 5.7201 17.2156 11.4501 4.5290 0.0000 5.9814
362 26 7.2117 18.6771 12.8529 3.8699 0.0000 6.5522
363 26 5.6724 17.1832 14.3311 5.3395 0.0000 6.5877
364 26 7.1876 18.6672 15.7794 4.9866 0.0000 5.1509
365 26 5.7585 17.2072 17.2202 3.7516 0.0000 5.6339
366 26 7.2035 18.6238 18.5740 4.9368 0.0000 5.3977
367 26 5.7254 17.2296 20.0400 3.9863 0.0000 5.7137
368 26 7.1922 18.6032 21.5596 3.7411 0.0000 6.6728
369 26 5.6683 20.0659 0.0143 4.0042 0.0000 6.7934
370 26 7.1848 21.5604 1.4238 4.7418 0.0000 6.4545
371 26 5.7179 20.0437 2.9250 3.7751 0.0000 6.7144
372 26 7.1154 21.5170 4.2800 4.4839 0.0000 5.5621
373 26 5.7315 20.0120 5.7249 5.4137 0.0000 6.3975
374 26 7.2209 21.5002 7.2558 5.2124 0.0000 5.3507
375 26 5.7019 20.0536 8.6085 3.7382 0.0000 6.1998
376 26 7.1308 21.4533 10.0833 4.8451 0.0000 6.5030
377 26 5.7374 20.0553 11.5131 4.3951 0.0000 6.5391
378 26 7.1314 21.4916 12.9188 4.3819 0.0000 6.4904
379 26 5.7482 20.0641 14.3247 4.5215 0.0000 5.3728
380 26 7.1130 21.5123 15.7697 3.8683 0.0000 5.4252
381 26 5.7296 20.0637 17.1828 4.6270 0.0000 6.7929
382 26 7.2004 21.4980 18.6495 4.5170 0.0000 5.8255
383 26 5.7860 20.1107 20.1321 4.8263 0.0000 5.2637
384 26 7.1489 21.5379 21.5241 4.8864 0.0000 6.1407
385 26 8.6384 0.0012 -0.0476 3.7429 0.0000 5.2291
386 26 9.9704 1.3808 1.4308 3.7558 0.0000 5.1678
387 26 8.6223 0.0044 2.8516 4.7181 0.0000 6.0823
388 26 9.9869 1.4572 4.3211 4.5571 0.0000 5.9501
389 26 8.5941 -0.0279 5.7663 4.8633 0.0000 5.7330
390 26 10.0656 1.5086 7.1463 3.7856 0.0000 5.5764
391 26 8.5847 0.0151 8.5836 4.7113 0.0000 5.0588
392 26 10.0209 1.4681 10.0355 4.8497 0.0000 5.8531
393 26 8.6752 0.0128 11.5003 3.9175 0.0000 5.3572
394 26 10.0455 1.4808 12.8788 4.3230 0.0000 5.2643
395 26 8.6154 0.0256 14.3631 4.2850 0.0000 5.9531
396 26 10.0182 1.4267 15.7421 5.2749 0.0000 5.6493
397 26 8.5777 0.0219 17.2492 3.8571 0.0000 5.6445
398 26 10.0201 1.4280 18.6238 5.3256 0.0000 5.6507
399 26 8.6289 -0.0273 20.0890 5.3635 0.0000 5.0551
400 26 10.0242 1.3882 21.5258 5.0663 0.0000 5.7307
401 26 8.6130 2.8787 -0.0345 4.5834 0.0000 6.3158
402 26 10.0405 4.2937 1.4599 3.9178 0.0000 5.0716
403 26 8.6415 2.8780 2.8648 4.2219 0.0000 5.0490
404 26 10.0342 4.3308 4.3135 5.5516 0.0000 6.1194
405 26 8.5514 2.8885 5.7069 4.3410 0.0000 5.9570
406 26 10.0076 4.2963 7.1753 5.3889 0.0000 6.1940
407 26 8.6131 2.8896 8.5565 4.7081 0.0000 6.2965
408 26 10.0025 4.2899 10.0803 4.6016 0.0000 5.0850
409 26 8.6164 2.8892 11.4166 4.2345 0.0000 6.7450
410 26 10.0447 4.2455 12.8837 4.2414 0.0000 6.4385
411 26 8.6251 2.8733 14.3273 4.5128 0.0000 5.0498
412 26 10.0354 4.3122 15.7390 4.6473 0.0000 5.5256
413 26 8.6176 2.8600 17.2312 5.0827 0.0000 6.3420
414 26 10.0448 4.3264 18.6077 4.2453 0.0000 5.7269
415 26 8.5908 2.9046 20.0364 3.8687 0.0000 5.6842
416 26 10.0075 4.3261 21.5072 5.0587 0.0000 6.5094
417 26 8.6003 5.7081 -0.0134 4.8218 0.0000 6.2501
418 26 10.0258 7.1771 1.4071 5.3693 0.0000 6.3568
419 26 8.6624 5.6814 2.8300 5.4391 0.0000 5.1883
420 26 10.0640 7.1739 4.2657 5.2798 0.0000 6.4203
421 26 8.6016 5.7719 5.7795 3.8468 0.0000 5.2019
422 26 10.0267 7.2153 7.1918 4.2897 0.0000 6.4957
423 26 8.6014 5.7124 8.5844 5.4871 0.0000 5.3537
424 26 10.0000 7.1402 10.0163 4.1536 0.0000 5.6392
425 26 8.6024 5.7549 11.4426 4.8634 0.0000 6.6730
426 26 10.0239 7.1578 12.9505 4.9662 0.0000 5.4781
427 26 8.6213 5.7642 14.3704 3.7432 0.0000 5.8885
428 26 10.0098 7.1546 15.7697 4.9887 0.0000 5.3575
429 26 8.5767 5.7275 17.2242 4.2366 0.0000 6.6195
430 26 10.0860 7.1671 18.6320 4.1017 0.0000 5.6207
431 26 8.5854 5.6824 20.0675 4.9268 0.0000 5.4998
432 26 10.0041 7.1197 21.5000 4.0487 0.0000 5.5507
433 26 8.6229 8.5801 -0.0154 4.0213 0.0000 6.2741
434 26 10.0435 10.0311 1.4150 4.1201 0.0000 6.5629
435 26 8.5811 8.5836 2.8553 5.5755 0.0000 6.5386
436 26 10.0036 10.0253 4.2816 4.6493 0.0000 5.6159
437 26 8.5420 8.5882 5.7371 4.2898 0.0000 6.0603
438 26 10.0281 10.0866 7.1715 4.1422 0.0000 5.6725
439 26 8.5773 8.5807 8.6186 4.0265 0.0000 5.5459
440 26 10.0586 10.0293 10.0354 5.1592 0.0000 5.6391
441 26 8.6119 8.6058 11.4848 4.8197 0.0000 6.4964
442 26 10.0240 10.0117 12.8880 3.7938 0.0000 6.2655
443 26 8.6088 8.6311 14.3249 4.6554 0.0000 5.0505
444 26 10.0489 10.0171 15.7537 5.0458 0.0000 6.0267
445 26 8.5462 8.6174 17.2126 4.6350 0.0000 5.5590
446 26 10.0220 10.0550 18.6668 4.8147 0.0000 6.5699
447 26 8.5981 8.5545 20.1354 4.8372 0.0000 5.9352
448 26 10.0423 10.0497 21.5180 5.4609 0.0000 6.2558
449 26 8.6005 11.4813 -0.0229 4.3276 0.0000 6.1937
450 26 10.0611 12.9035 1.4359 3.7820 0.0000 5.8172
451 26 8.5970 11.4392 2.8946 4.4124 0.0000 6.2816
452 26 10.0227 12.8945 4.3356 5.0141 0.0000 6.2312
453 26 8.5662 11.4710 5.7978 4.4834 0.0000 5.4596
454 26 10.0654 12.9029 7.1354 5.0761 0.0000 6.6706
455 26 8.6239 11.4845 8.5697 4.1451 0.0000 6.6847
456 26 10.0039 12.9090 10.0281 4.1697 0.0000 6.6610
457 26 8.6441 11.4682 11.4732 4.7328 0.0000 5.2958
458 26 10.0127 12.8952 12.9007 5.3356 0.0000 5.7153
459 26 8.6251 11.4757 14.3489 4.8390 0.0000 5.8913
460 26 10.0102 12.8764 15.7345 4.2598 0.0000 6.2383
461 26 8.6086 11.5075 17.1856 3.8481 0.0000 6.6790
462 26 10.0050 12.9193 18.6664 5.2659 0.0000 6.0681
463 26 8.6041 11.5063 20.1165 5.0018 0.0000 5.6183
464 26 10.0620 12.9496 21.4932 5.1443 0.0000 6.3699
465 26 8.5987 14.3662 -0.0201 4.2449 0.0000 6.3942
466 26 10.0180 15.8002 1.4200 5.0565 0.0000 6.2239
467 26 8.6430 14.3208 2.8498 5.2816 0.0000 6.5776
468 26 10.0364 15.7742 4.3016 4.5031 0.0000 5.9331
469 26 8.6159 14.3009 5.6848 5.1537 0.0000 6.6268
470 26 10.0586 15.7475 7.1356 4.2284 0.0000 5.7992
471 26 8.6146 14.3529 8.5598 5.1036 0.0000 5.8968
472 26 10.0356 15.7803 10.0358 4.0474 0.0000 5.9783
473 26 8.5653 14.3329 11.4892 5.1990 0.0000 6.1991
474 26 9.9957 15.7563 12.9610 4.3707 0.0000 6.0890
475 26 8.5749 14.3383 14.3448 4.5726 0.0000 5.6600
476 26 10.0389 15.7656 15.7596 3.7908 0.0000 6.3644
477 26 8.6326 14.3301 17.2449 4.3527 0.0000 6.0384
478 26 10.0447 15.7441 18.6472 4.5930 0.0000 5.7182
479 26 8.6416 14.3679 20.0838 4.6925 0.0000 5.3420
480 26 10.0077 15.7915 21.4948 4.5705 0.0000 5.7389
481 26 8.5988 17.2158 -0.0012 4.9604 0.0000 5.9809
482 26 10.0893 18.6652 1.4499 5.1677 0.0000 5.9387
483 26 8.5778 17.1782 2.8761 4.8671 0.0000 6.5039
484 26 10.0280 18.6071 4.3134 4.5875 0.0000 5.5057
485 26 8.6417 17.2122 5.6948 4.5061 0.0000 6.7710
486 26 10.0169 18.6410 7.1570 5.1498 0.0000 5.4478
487 26 8.5756 17.2390 8.5824 3.8324 0.0000 6.3562
488 26 10.0163 18.5952 10.0319 5.5011 0.0000 5.4049
489 26 8.6084 17.1495 11.4885 3.7509 0.0000 6.5877
490 26 9.9973 18.6071 12.8978 5.4485 0.0000 6.6142
491 26 8.6006 17.2026 14.3035 4.5944 0.0000 6.1612
492 26 10.0346 18.6649 15.7854 4.0552 0.0000 5.7672
493 26 8.6338 17.2350 17.2716 5.2428 0.0000 5.5165
494 26 10.0653 18.6726 18.6132 4.5194 0.0000 6.2932
495 26 8.6263 17.1881 20.1088 4.8212 0.0000 5.5107
496 26 10.0080 18.6545 21.5178 4.9643 0.0000 5.4764
497 26 8.5622 20.0422 0.0162 5.2826 0.0000 6.5787
498 26 10.0333 21.5049 1.4232 4.2531 0.0000 5.4833
499 26 8.6134 20.1094 2.8558 4.9499 0.0000 5.6859
500 26 10.0615 21.5014 4.2618 4.7006 0.0000 5.7159
501 26 8.6407 20.1060 5.7512 4.4223 0.0000 5.3078
502 26 10.0604 21.5376 7.2334 5.3894 0.0000 5.3652
503 26 8.6125 20.1185 8.6230 5.0487 0.0000 6.1236
504 26 9.9990 21.4278 10.0469 4.8844 0.0000 6.4286
505 26 8.6172 20.0703 11.4712 4.3047 0.0000 6.7920
506 26 10.0096 21.5095 12.9048 3.9746 0.0000 6.2704
507 26 8.5917 20.0330 14.2849 4.5355 0.0000 5.5370
508 26 10.0081 21.4574 15.7587 4.9948 0.0000 6.0299
509 26 8.5901 20.0944 17.2170 5.5613 0.0000 6.2378
510 26 9.9963 21.5096 18.6301 5.1253 0.0000 5.9817
511 26 8.5929 20.0342 20.0832 4.5496 0.0000 6.3939
512 26 10.0167 21.5169 21.4476 4.0278 0.0000 5.9480
513 26 11.4404 -0.0361 0.0145 4.5670 0.0000 6.7144
514 26 12.8897 1.4514 1.4164 4.0304 0.0000 5.0515
515 26 11.4276 0.0022 2.8248 3.8697 0.0000 6.5603
516 26 12.8524 1.3830 4.2828 3.8512 0.0000 6.7099
517 26 11.4120 -0.0001 5.7279 4.6929 0.0000 5.0808
518 26 12.9200 1.4099 7.1330 5.3727 0.0000 5.7970
519 26 11.4200 -0.0613 8.6222 4.1823 0.0000 5.5138
520 26 12.8976 1.4376 10.0377 5.0475 0.0000 5.8094
521 26 11.4493 0.0052 11.4818 4.0308 0.0000 5.1354
522 26 12.9446 1.4226 12.8648 3.9076 0.0000 5.3457
523 26 11.4705 0.0233 14.3291 4.8587 0.0000 6.1862
524 26 12.9021 1.3975 15.7960 4.1881 0.0000 5.1778
525 26 11.4555 0.0035 17.2018 3.8914 0.0000 6.6324
526 26 12.8751 1.4088 18.6095 5.1495 0.0000 5.8262
527 26 11.4511 -0.0327 20.0713 4.3289 0.0000 5.5505
528 26 12.9502 1.4422 21.5282 4.5545 0.0000 6.0193
529 26 11.4124 2.8616 -0.0007 3.7907 0.0000 6.5779
530 26 12.9244 4.3462 1.4581 3.8227 0.0000 5.9859
531 26 11.4767 2.8473 2.8641 4.6091 0.0000 5.3623
532 26 12.8675 4.2832 4.3407 4.9117 0.0000 6.4044
533 26 11.4732 2.8303 5.7119 4.4031 0.0000 6.5632
534 26 12.9058 4.3169 7.1810 4.8436 0.0000 5.8819
535 26 11.4775 2.8768 8.6118 4.1215 0.0000 5.8125
536 26 12.9450 4.2530 9.9807 3.7804 0.0000 6.2927
537 26 11.4986 2.8568 11.4718 5.1411 0.0000 6.1577
538 26 12.8985 4.3410 12.8975 4.4178 0.0000 5.6603
539 26 11.4211 2.8817 14.3488 4.6945 0.0000 5.7957
540 26 12.9057 4.3173 15.7038 4.1353 0.0000 5.0389
541 26 11.4851 2.8647 17.2187 4.7597 0.0000 6.7965
542 26 12.9111 4.2947 18.6786 4.9093 0.0000 6.2073
543 26 11.4502 2.8375 20.0855 5.1393 0.0000 5.8454
544 26 12.9328 4.3033 21.5274 5.3437 0.0000 6.2517
545 26 11.4458 5.7325 -0.0297 4.4123 0.0000 5.8471
546 26 12.9182 7.0909 1.4526 4.0286 0.0000 5.7557
547 26 11.5027 5.7079 2.8847 3.8425 0.0000 6.5703
548 26 12.9050 7.1576 4.3208 5.0820 0.0000 6.4936
549 26 11.5047 5.7765 5.7291 3.9613 0.0000 6.1683
550 26 12.8620 7.1407 7.1122 5.5053 0.0000 6.7274
551 26 11.4985 5.7337 8.6302 5.2742 0.0000 6.7662
552 26 12.9012 7.1191 10.0155 4.1976 0.0000 5.5615
553 26 11.5205 5.7276 11.4511 5.1937 0.0000 5.0697
554 26 12.8978 7.1532 12.8896 4.6405 0.0000 5.6663
555 26 11.4715 5.7299 14.2828 5.3309 0.0000 6.5669
556 26 12.9583 7.1869 15.7569 5.5128 0.0000 6.6396
557 26 11.4058 5.7493 17.1799 4.0571 0.0000 6.0972
558 26 12.9298 7.1589 18.6604 5.1716 0.0000 5.9419
559 26 11.4747 5.7370 20.1430 4.9870 0.0000 5.9791
560 26 12.9424 7.2040 21.4927 5.3510 0.0000 5.9920
561 26 11.4877 8.5970 0.0134 4.3415 0.0000 5.8575
562 26 12.9256 10.0160 1.3970 4.4213 0.0000 5.3216
563 26 11.4423 8.6293 2.9012 3.7939 0.0000 5.2850
564 26 12.9336 10.0613 4.2673 5.1459 0.0000 6.1741
565 26 11.5104 8.5780 5.7372 5.0555 0.0000 5.2263
566 26 12.8919 10.0145 7.1738 5.3017 0.0000 5.1797
567 26 11.4367 8.5870 8.5713 4.1541 0.0000 5.5728
568 26 12.8810 10.0072 10.0564 4.3681 0.0000 6.6462
569 26 11.4685 8.5785 11.5031 4.3786 0.0000 6.0939
570 26 12.9009 10.0266 12.9346 5.4456 0.0000 6.1259
571 26 11.4623 8.5919 14.3483 4.5902 0.0000 5.7666
572 26 12.8899 10.0008 15.7741 3.7586 0.0000 6.0910
573 26 11.5042 8.6036 17.1766 4.7652 0.0000 5.4314
574 26 12.9230 10.0430 18.5975 5.3536 0.0000 6.2914
575 26 11.4712 8.6142 20.0845 4.8825 0.0000 6.6191
576 26 12.9380 10.0521 21.5091 4.9669 0.0000 6.4089
577 26 11.4370 11.4468 -0.0087 4.1026 0.0000 5.4233
578 26 12.9038 12.9105 1.4602 4.5891 0.0000 6.5478
579 26 11.4342 11.4544 2.8410 5.4348 0.0000 5.0435
580 26 12.9212 12.9131 4.3143 3.7302 0.0000 5.5444
581 26 11.5115 11.4755 5.7138 4.5899 0.0000 5.5184
582 26 12.8797 12.9103 7.1879 5.0559 0.0000 5.7968
583 26 11.4875 11.4559 8.5894 3.7553 0.0000 6.3921
584 26 12.8990 12.9080 9.9976 4.6434 0.0000 5.1607
585 26 11.4632 11.4432 11.4599 4.3697 0.0000 5.6292
586 26 12.8708 12.8774 12.8859 4.2241 0.0000 5.1598
587 26 11.4478 11.4573 14.3140 4.1204 0.0000 6.6272
588 26 12.8925 12.8583 15.7731 4.6471 0.0000 5.9592
589 26 11.4322 11.4644 17.1458 5.1188 0.0000 6.1860
590 26 12.9154 12.8886 18.6589 5.5483 0.0000 6.6341
591 26 11.4494 11.4953 20.0476 4.7434 0.0000 5.1533
592 26 12.9356 12.9057 21.4811 4.9416 0.0000 6.7627
593 26 11.4717 14.3423 -0.0106 4.2505 0.0000 6.1523