ITEM: TIMESTEP
0
ITEM: NUMBER OF ATOMS
1024
ITEM: BOX BOUNDS pp pp pp
0.0 25.3200
0.0 25.3200
0.0 25.3200
ITEM: ATOMS id type x y z error strain stiffness
1 74 -0.0014 0.0036 0.0029 1.3708 0.0000 1.9434
2 74 1.5799 1.5744 1.5817 1.6716 0.0000 2.2358
3 74 -0.0157 0.0018 3.1882 1.5263 0.0000 2.3193
4 74 1.5844 1.5630 4.7580 1.5177 0.0000 2.0191
5 74 0.0057 -0.0012 6.3339 1.6191 0.0000 1.8422
6 74 1.5752 1.5791 7.9125 1.3368 0.0000 1.7823
7 74 -0.0061 -0.0150 9.5177 1.7328 0.0000 1.9637
8 74 1.5752 1.5897 11.0861 1.3829 0.0000 2.1728
9 74 0.0134 -0.0061 12.6550 1.7548 0.0000 2.2723
10 74 1.5808 1.5795 14.2459 1.4685 0.0000 1.9118
11 74 0.0055 -0.0147 15.8064 1.5427 0.0000 2.2131
12 74 1.5924 1.5810 17.3879 1.2224 0.0000 2.0012
13 74 -0.0253 -0.0108 18.9838 1.3056 0.0000 1.8072
14 74 1.5709 1.5831 20.5857 1.2164 0.0000 2.0340
15 74 0.0057 -0.0154 22.1616 1.6713 0.0000 2.3576
16 74 1.5977 1.5813 23.7405 1.4610 0.0000 2.3742
17 74 -0.0173 3.1559 0.0081 1.7710 0.0000 2.3991
18 74 1.5801 4.7261 1.5794 1.3347 0.0000 2.1918
19 74 0.0125 3.1667 3.1545 1.7288 0.0000 2.3612
20 74 1.5709 4.7318 4.7396 1.7127 0.0000 1.9437
21 74 0.0009 3.1661 6.3299 1.7287 0.0000 1.9401
22 74 1.5809 4.7408 7.9222 1.6919 0.0000 2.0806
23 74 -0.0161 3.1682 9.4725 1.5096 0.0000 2.0366
24 74 1.5939 4.7436 11.0866 1.2739 0.0000 2.0982
25 74 -0.0009 3.1625 12.6759 1.4532 0.0000 2.1811
26 74 1.5804 4.7579 14.2533 1.6699 0.0000 2.1866
27 74 0.0019 3.1451 15.8114 1.5456 0.0000 1.8438
28 74 1.5846 4.7505 17.4038 1.7591 0.0000 2.0214
29 74 0.0042 3.1681 18.9846 1.7299 0.0000 2.0545
30 74 1.5842 4.7473 20.5813 1.3660 0.0000 1.9632
31 74 0.0057 3.1752 22.1366 1.6017 0.0000 2.2994
32 74 1.5850 4.7464 23.7443 1.7021 0.0000 2.0394
33 74 0.0087 6.3275 0.0092 1.4945 0.0000 2.2355
34 74 1.5872 7.9019 1.5925 1.5481 0.0000 2.2643
35 74 0.0163 6.3434 3.1578 1.7646 0.0000 2.1377
36 74 1.5922 7.9068 4.7376 1.7338 0.0000 2.1398
37 74 -0.0068 6.3396 6.3265 1.3154 0.0000 1.9258
38 74 1.5651 7.9071 7.9237 1.3136 0.0000 2.3391
39 74 -0.0090 6.3284 9.4985 1.5351 0.0000 2.1152
40 74 1.5831 7.9116 11.0800 1.4200 0.0000 2.0118
41 74 -0.0011 6.3139 12.6580 1.3990 0.0000 2.0613
42 74 1.5732 7.9220 14.2459 1.6970 0.0000 1.9910
43 74 0.0002 6.3395 15.8248 1.4566 0.0000 2.1603
44 74 1.5944 7.9170 17.4035 1.3253 0.0000 1.8694
45 74 0.0118 6.3423 18.9974 1.6324 0.0000 1.9160
46 74 1.5715 7.9098 20.5657 1.5183 0.0000 1.8792
47 74 0.0021 6.3182 22.1509 1.2250 0.0000 1.9372
48 74 1.5762 7.9233 23.7499 1.4697 0.0000 1.9434
49 74 -0.0009 9.5008 0.0053 1.6040 0.0000 1.8690
50 74 1.5666 11.0946 1.5829 1.2234 0.0000 2.1408
51 74 -0.0119 9.4845 3.1793 1.5562 0.0000 1.8894
52 74 1.5825 11.0732 4.7401 1.6560 0.0000 1.8877
53 74 -0.0095 9.5036 6.3367 1.4473 0.0000 2.3790
54 74 1.5759 11.0768 7.9040 1.2363 0.0000 1.8187
55 74 -0.0026 9.5043 9.4976 1.7577 0.0000 2.2560
56 74 1.5946 11.0696 11.0825 1.4686 0.0000 2.1808
57 74 -0.0077 9.4962 12.6505 1.5990 0.0000 2.2302
58 74 1.5879 11.0673 14.2501 1.3645 0.0000 1.8924
59 74 -0.0030 9.4972 15.8379 1.7991 0.0000 2.3548
60 74 1.5763 11.0742 17.4120 1.4541 0.0000 2.0327
61 74 -0.0023 9.4860 19.0021 1.2101 0.0000 2.1424
62 74 1.5796 11.0773 20.5851 1.3490 0.0000 2.0160
63 74 0.0008 9.4850 22.1670 1.5162 0.0000 2.0828
64 74 1.5902 11.0911 23.7378 1.6170 0.0000 1.8221
65 74 0.0043 12.6664 -0.0034 1.7556 0.0000 2.3066
66 74 1.5634 14.2492 1.5774 1.3526 0.0000 1.9092
67 74 0.0059 12.6622 3.1563 1.7271 0.0000 2.2807
68 74 1.5779 14.2467 4.7444 1.6856 0.0000 2.3344
69 74 0.0050 12.6515 6.3104 1.5522 0.0000 1.8468
70 74 1.5824 14.2288 7.9071 1.2599 0.0000 2.2529
71 74 -0.0054 12.6528 9.4976 1.5856 0.0000 2.0045
72 74 1.5808 14.2469 11.0895 1.3126 0.0000 2.0807
73 74 -0.0200 12.6521 12.6725 1.3479 0.0000 1.9723
74 74 1.5809 14.2381 14.2269 1.4758 0.0000 2.1135
75 74 0.0206 12.6630 15.8124 1.5781 0.0000 2.0584
76 74 1.5837 14.2561 17.4020 1.5716 0.0000 1.7809
77 74 0.0151 12.6523 18.9956 1.8014 0.0000 2.3564
78 74 1.5783 14.2533 20.5608 1.6054 0.0000 2.2130
79 74 -0.0049 12.6658 22.1435 1.6262 0.0000 1.8635
80 74 1.5813 14.2403 23.7429 1.5356 0.0000 2.3540
81 74 -0.0082 15.8121 -0.0008 1.2044 0.0000 2.0512
82 74 1.5852 17.3871 1.5818 1.2609 0.0000 2.3752
83 74 -0.0147 15.8217 3.1654 1.5839 0.0000 1.7914
84 74 1.5725 17.3964 4.7603 1.4965 0.0000 2.2763
85 74 -0.0109 15.8391 6.3371 1.7190 0.0000 2.2176
86 74 1.5710 17.4224 7.9134 1.3135 0.0000 1.8270
87 74 0.0058 15.8436 9.5009 1.2878 0.0000 2.2068
88 74 1.5786 17.4018 11.0803 1.4183 0.0000 2.0972
89 74 -0.0059 15.8239 12.6612 1.3579 0.0000 1.8229
90 74 1.5825 17.4024 14.2455 1.4148 0.0000 2.1348
91 74 -0.0014 15.8176 15.8370 1.3399 0.0000 2.2017
92 74 1.5941 17.4170 17.4028 1.6651 0.0000 1.9883
93 74 -0.0023 15.8303 18.9924 1.2859 0.0000 1.8272
94 74 1.5891 17.3911 20.5640 1.7583 0.0000 1.8595
95 74 -0.0141 15.8373 22.1481 1.4063 0.0000 1.8232
96 74 1.5851 17.4161 23.7380 1.5591 0.0000 2.2556
97 74 0.0093 18.9846 0.0064 1.3517 0.0000 1.7917
98 74 1.5838 20.5798 1.5879 1.6083 0.0000 1.9183
99 74 0.0000 18.9904 3.1592 1.6309 0.0000 2.2731
100 74 1.5858 20.5773 4.7548 1.2039 0.0000 2.3941
101 74 -0.0038 18.9812 6.3301 1.7575 0.0000 1.9699
102 74 1.5832 20.5856 7.9140 1.4427 0.0000 2.2344
103 74 -0.0120 18.9858 9.4915 1.5830 0.0000 2.0261
104 74 1.5794 20.5900 11.0502 1.2899 0.0000 2.1980
105 74 0.0030 18.9998 12.6733 1.5582 0.0000 2.1488
106 74 1.5863 20.5739 14.2280 1.2940 0.0000 2.3609
107 74 0.0020 18.9916 15.8415 1.5796 0.0000 2.2855
108 74 1.5787 20.5648 17.4063 1.6945 0.0000 2.2627
109 74 0.0003 19.0059 19.0001 1.2262 0.0000 1.7827
110 74 1.5783 20.5748 20.5497 1.3568 0.0000 2.1594
111 74 0.0072 18.9883 22.1473 1.7192 0.0000 2.2641
112 74 1.5855 20.5646 23.7423 1.3211 0.0000 2.2123
113 74 -0.0033 22.1605 0.0042 1.3927 0.0000 1.8535
114 74 1.5811 23.7407 1.5616 1.4934 0.0000 2.1547
115 74 0.0093 22.1551 3.1562 1.3831 0.0000 2.2097
116 74 1.5923 23.7481 4.7488 1.3697 0.0000 2.0533
117 74 0.0046 22.1471 6.3378 1.6052 0.0000 2.2018
118 74 1.5768 23.7299 7.9201 1.5976 0.0000 2.0832
119 74 0.0013 22.1717 9.4873 1.4000 0.0000 2.3069
120 74 1.5683 23.7317 11.0661 1.6720 0.0000 2.2801
121 74 -0.0047 22.1534 12.6804 1.7911 0.0000 2.0130
122 74 1.5868 23.7265 14.2422 1.3598 0.0000 1.8104
123 74 0.0183 22.1542 15.8335 1.2867 0.0000 2.1707
124 74 1.5672 23.7608 17.4045 1.2810 0.0000 1.9698
125 74 0.0062 22.1547 18.9859 1.5928 0.0000 1.9063
126 74 1.5833 23.7336 20.5791 1.3245 0.0000 2.3834
127 74 -0.0010 22.1580 22.1443 1.4349 0.0000 2.0156
128 74 1.5901 23.7174 23.7445 1.3911 0.0000 2.1043
129 74 3.1524 -0.0101 -0.0101 1.2506 0.0000 1.7967
130 74 4.7426 1.5848 1.5764 1.4574 0.0000 2.1291
131 74 3.1650 -0.0085 3.1557 1.6200 0.0000 2.2222
132 74 4.7460 1.5722 4.7436 1.6126 0.0000 2.2759
133 74 3.1711 0.0018 6.3400 1.3251 0.0000 2.0849
134 74 4.7567 1.6025 7.9101 1.4006 0.0000 1.8346
135 74 3.1541 -0.0117 9.4960 1.2744 0.0000 2.3695
136 74 4.7520 1.5962 11.0786 1.5745 0.0000 2.2655
137 74 3.1643 -0.0058 12.6517 1.6465 0.0000 2.1725
138 74 4.7482 1.5794 14.2117 1.3929 0.0000 1.9508
139 74 3.1469 -0.0056 15.8258 1.7344 0.0000 2.1069
140 74 4.7695 1.5938 17.4194 1.3394 0.0000 2.0708
141 74 3.1691 0.0075 18.9860 1.4470 0.0000 1.9503
142 74 4.7467 1.5840 20.5914 1.5027 0.0000 2.0380
143 74 3.1719 -0.0115 22.1501 1.7245 0.0000 2.3571
144 74 4.7586 1.5714 23.7262 1.2937 0.0000 2.2106
145 74 3.1753 3.1669 0.0138 1.3761 0.0000 2.3800
146 74 4.7290 4.7518 1.5977 1.6939 0.0000 2.3219
147 74 3.1623 3.1900 3.1611 1.7928 0.0000 1.8730
148 74 4.7532 4.7310 4.7371 1.5581 0.0000 2.0687
149 74 3.1561 3.1600 6.3276 1.2943 0.0000 2.1893
150 74 4.7579 4.7488 7.9240 1.5338 0.0000 1.8798
151 74 3.1620 3.1635 9.4954 1.4326 0.0000 2.0531
152 74 4.7294 4.7549 11.1002 1.5722 0.0000 2.1848
153 74 3.1596 3.1747 12.6556 1.5546 0.0000 2.2953
154 74 4.7671 4.7628 14.2305 1.6956 0.0000 2.0132
155 74 3.1525 3.1727 15.8196 1.4679 0.0000 1.7898
156 74 4.7336 4.7332 17.4023 1.7724 0.0000 1.8511
157 74 3.1696 3.1647 18.9861 1.5467 0.0000 1.8488
158 74 4.7476 4.7521 20.5569 1.7194 0.0000 1.9249
159 74 3.1693 3.1798 22.1517 1.7544 0.0000 2.2991
160 74 4.7572 4.7413 23.7204 1.3208 0.0000 2.1894
161 74 3.1561 6.3344 -0.0121 1.4522 0.0000 2.0700
162 74 4.7523 7.9256 1.5745 1.5354 0.0000 2.2331
163 74 3.1711 6.3167 3.1447 1.2175 0.0000 2.3109
164 74 4.7453 7.9021 4.7479 1.2669 0.0000 2.0528
165 74 3.1604 6.3349 6.3336 1.6485 0.0000 2.2268
166 74 4.7574 7.9076 7.9056 1.7522 0.0000 1.9153
167 74 3.1724 6.3185 9.4967 1.3219 0.0000 1.9987
168 74 4.7495 7.9172 11.0812 1.4502 0.0000 1.9206
169 74 3.1595 6.3187 12.6587 1.8008 0.0000 2.1096
170 74 4.7463 7.9175 14.2544 1.7861 0.0000 2.0115
171 74 3.1701 6.3451 15.8136 1.5259 0.0000 2.1649
172 74 4.7536 7.9112 17.3963 1.2349 0.0000 2.2282
173 74 3.1509 6.3155 18.9764 1.6274 0.0000 2.2915
174 74 4.7677 7.9167 20.5826 1.4777 0.0000 2.0186
175 74 3.1411 6.3331 22.1535 1.3701 0.0000 2.3621
176 74 4.7394 7.9093 23.7421 1.4251 0.0000 1.7856
177 74 3.1660 9.4967 -0.0001 1.6051 0.0000 2.1585
178 74 4.7492 11.0688 1.5829 1.6140 0.0000 2.3969
179 74 3.1867 9.4868 3.1517 1.7245 0.0000 1.8480
180 74 4.7399 11.0634 4.7514 1.6937 0.0000 2.1682
181 74 3.1574 9.4955 6.3306 1.6462 0.0000 1.9466
182 74 4.7371 11.0744 7.9055 1.5735 0.0000 2.0304
183 74 3.1707 9.4920 9.4829 1.2832 0.0000 1.8945
184 74 4.7381 11.0791 11.0834 1.3947 0.0000 2.1967
185 74 3.1604 9.4957 12.6591 1.5467 0.0000 2.3693
186 74 4.7544 11.0729 14.2344 1.7211 0.0000 2.1625
187 74 3.1485 9.4794 15.8321 1.7563 0.0000 2.2019
188 74 4.7423 11.0680 17.3978 1.3919 0.0000 2.0180
189 74 3.1588 9.4904 19.0071 1.3397 0.0000 1.9775
190 74 4.7323 11.0852 20.5715 1.5882 0.0000 2.1289
191 74 3.1636 9.4886 22.1532 1.7945 0.0000 1.9080
192 74 4.7393 11.0732 23.7319 1.3270 0.0000 2.1036
193 74 3.1719 12.6569 -0.0184 1.7439 0.0000 2.1511
194 74 4.7513 14.2326 1.5681 1.2527 0.0000 1.8059
195 74 3.1467 12.6561 3.1676 1.4408 0.0000 1.9365
196 74 4.7471 14.2376 4.7437 1.7383 0.0000 2.2301
197 74 3.1623 12.6545 6.3380 1.5831 0.0000 2.1751
198 74 4.7502 14.2377 7.9091 1.4428 0.0000 1.9311
199 74 3.1610 12.6593 9.4950 1.2249 0.0000 1.7955
200 74 4.7360 14.2385 11.0757 1.7387 0.0000 2.3079
201 74 3.1649 12.6583 12.6604 1.7303 0.0000 2.2782
202 74 4.7443 14.2558 14.2294 1.5147 0.0000 1.8888
203 74 3.1679 12.6731 15.8275 1.2518 0.0000 1.9121
204 74 4.7299 14.2383 17.4129 1.2620 0.0000 2.3597
205 74 3.1532 12.6540 19.0043 1.3620 0.0000 1.8216
206 74 4.7430 14.2383 20.5799 1.3678 0.0000 1.8764
207 74 3.1789 12.6614 22.1636 1.2993 0.0000 2.0753
208 74 4.7550 14.2333 23.7280 1.5575 0.0000 2.2196
209 74 3.1513 15.8336 0.0017 1.4286 0.0000 1.8831
210 74 4.7551 17.4002 1.5771 1.5967 0.0000 2.2987
211 74 3.1736 15.8300 3.1721 1.5104 0.0000 2.2582
212 74 4.7459 17.4017 4.7334 1.5987 0.0000 2.1920
213 74 3.1450 15.8355 6.3323 1.3570 0.0000 2.1320
214 74 4.7618 17.3988 7.8887 1.4075 0.0000 2.2405
215 74 3.1695 15.8239 9.5029 1.7600 0.0000 1.9265
216 74 4.7401 17.4083 11.0926 1.7209 0.0000 1.8139
217 74 3.1787 15.8197 12.6754 1.4098 0.0000 2.1880
218 74 4.7516 17.4048 14.2434 1.7137 0.0000 2.3585
219 74 3.1615 15.8427 15.8268 1.3026 0.0000 1.8389
220 74 4.7584 17.4068 17.4078 1.2712 0.0000 2.2987
221 74 3.1535 15.8279 18.9760 1.7707 0.0000 1.8072
222 74 4.7523 17.3997 20.5697 1.6580 0.0000 1.8792
223 74 3.1820 15.8360 22.1531 1.3695 0.0000 2.1948
224 74 4.7491 17.4227 23.7367 1.2965 0.0000 2.2065
225 74 3.1790 18.9835 0.0157 1.3953 0.0000 1.7927
226 74 4.7508 20.5632 1.5892 1.2488 0.0000 1.9857
227 74 3.1597 18.9682 3.1591 1.3434 0.0000 2.2265
228 74 4.7534 20.5761 4.7525 1.2202 0.0000 2.3682
229 74 3.1546 18.9843 6.3393 1.2453 0.0000 1.8606
230 74 4.7556 20.5782 7.9147 1.4159 0.0000 2.2376
231 74 3.1638 18.9898 9.5230 1.3245 0.0000 2.3453
232 74 4.7514 20.5750 11.0748 1.4883 0.0000 1.9994
233 74 3.1711 18.9767 12.6536 1.7191 0.0000 1.9747
234 74 4.7530 20.5765 14.2719 1.4198 0.0000 2.3934
235 74 3.1636 18.9800 15.8193 1.3502 0.0000 2.1724
236 74 4.7329 20.5804 17.3916 1.4369 0.0000 1.7959
237 74 3.1722 18.9865 18.9878 1.2633 0.0000 2.0019
238 74 4.7410 20.5703 20.5700 1.6772 0.0000 1.9621
239 74 3.1710 19.0064 22.1599 1.2355 0.0000 2.0724
240 74 4.7441 20.5769 23.7333 1.3233 0.0000 1.8214
241 74 3.1378 22.1664 0.0080 1.7940 0.0000 2.2141
242 74 4.7481 23.7202 1.5737 1.7777 0.0000 2.0113
243 74 3.1644 22.1622 3.1763 1.7720 0.0000 2.3120
244 74 4.7490 23.7343 4.7530 1.2706 0.0000 2.2317
245 74 3.1619 22.1555 6.3278 1.7043 0.0000 2.1941
246 74 4.7482 23.7419 7.9249 1.6904 0.0000 2.3954
247 74 3.1659 22.1525 9.4910 1.6161 0.0000 2.1179
248 74 4.7528 23.7447 11.0763 1.7033 0.0000 2.0999
249 74 3.1626 22.1394 12.6791 1.4686 0.0000 2.1420
250 74 4.7542 23.7465 14.2364 1.2480 0.0000 2.1222
251 74 3.1689 22.1572 15.8295 1.3242 0.0000 2.1373
252 74 4.7496 23.7252 17.4119 1.7998 0.0000 2.3269
253 74 3.1716 22.1460 18.9826 1.3919 0.0000 1.9436
254 74 4.7522 23.7496 20.5819 1.5270 0.0000 1.8243
255 74 3.1532 22.1615 22.1544 1.6514 0.0000 2.2739
256 74 4.7417 23.7334 23.7403 1.4054 0.0000 2.1021
257 74 6.3354 0.0302 0.0068 1.2262 0.0000 2.2471
258 74 7.9113 1.5903 1.5710 1.5685 0.0000 1.9237
259 74 6.3267 -0.0207 3.1632 1.6202 0.0000 2.3251
260 74 7.9096 1.5699 4.7585 1.4913 0.0000 2.1306
261 74 6.3367 -0.0013 6.3076 1.3579 0.0000 1.9863
262 74 7.9188 1.5815 7.9053 1.6670 0.0000 1.9447
263 74 6.3412 -0.0012 9.4795 1.7731 0.0000 1.9125
264 74 7.9061 1.5935 11.0867 1.5389 0.0000 1.8508
265 74 6.3356 0.0287 12.6529 1.2456 0.0000 1.8401
266 74 7.9277 1.5825 14.2307 1.7640 0.0000 1.9321
267 74 6.3515 -0.0024 15.8202 1.3795 0.0000 2.3711
268 74 7.9126 1.5716 17.4057 1.5637 0.0000 2.1693
269 74 6.3202 0.0044 19.0085 1.3310 0.0000 2.3606
270 74 7.9198 1.5904 20.5877 1.2962 0.0000 2.1504
271 74 6.3331 0.0101 22.1567 1.5762 0.0000 2.2049
272 74 7.9094 1.5825 23.7292 1.5483 0.0000 2.2420
273 74 6.3560 3.1762 0.0041 1.5973 0.0000 2.1677
274 74 7.9211 4.7648 1.5730 1.7588 0.0000 1.9383
275 74 6.3325 3.1649 3.1709 1.7793 0.0000 2.1986
276 74 7.9213 4.7599 4.7440 1.6757 0.0000 2.3701
277 74 6.3267 3.1626 6.3403 1.2783 0.0000 2.2333
278 74 7.9091 4.7477 7.9151 1.6755 0.0000 1.9319
279 74 6.3349 3.1705 9.4947 1.7302 0.0000 2.1893
280 74 7.9185 4.7414 11.0717 1.3481 0.0000 2.0601
281 74 6.3093 3.1694 12.6682 1.6333 0.0000 1.8186
282 74 7.9206 4.7457 14.2482 1.3833 0.0000 1.9577
283 74 6.3158 3.1527 15.8437 1.5695 0.0000 2.3530
284 74 7.9124 4.7550 17.4013 1.4714 0.0000 2.3829
285 74 6.3466 3.1617 18.9833 1.4807 0.0000 2.1525
286 74 7.9042 4.7459 20.5743 1.4658 0.0000 1.8570
287 74 6.3156 3.1519 22.1603 1.4573 0.0000 1.8719
288 74 7.9002 4.7475 23.7399 1.7874 0.0000 2.2985
289 74 6.3175 6.3231 -0.0091 1.6514 0.0000 1.9758
290 74 7.9104 7.9227 1.5926 1.2050 0.0000 1.7964
291 74 6.3318 6.3322 3.1664 1.2249 0.0000 2.1796
292 74 7.9263 7.9129 4.7538 1.4545 0.0000 2.1915
293 74 6.3337 6.3304 6.3382 1.4488 0.0000 2.0140
294 74 7.9153 7.8962 7.9054 1.4640 0.0000 2.1822
295 74 6.3255 6.3265 9.4840 1.6574 0.0000 2.0456
296 74 7.9039 7.9048 11.0796 1.4572 0.0000 1.9331
297 74 6.3312 6.3240 12.6758 1.3324 0.0000 1.8583
298 74 7.9088 7.9095 14.2419 1.3075 0.0000 1.9757
299 74 6.3211 6.3239 15.8241 1.5131 0.0000 1.8700
300 74 7.9148 7.9065 17.4050 1.7312 0.0000 2.3734
301 74 6.3414 6.3320 18.9847 1.3660 0.0000 1.8003
302 74 7.9193 7.8963 20.5705 1.6334 0.0000 1.9177
303 74 6.3250 6.3250 22.1587 1.7106 0.0000 2.1879
304 74 7.9192 7.9037 23.7313 1.7570 0.0000 2.0575
305 74 6.3287 9.5131 -0.0049 1.7820 0.0000 1.9981
306 74 7.9032 11.0783 1.5882 1.7328 0.0000 2.0541
307 74 6.3381 9.5065 3.1509 1.6334 0.0000 1.7839
308 74 7.9007 11.0763 4.7488 1.3712 0.0000 2.0380
309 74 6.3364 9.5061 6.3441 1.7042 0.0000 1.8991
310 74 7.9065 11.0871 7.9273 1.8032 0.0000 2.1098
311 74 6.3259 9.4999 9.5008 1.7949 0.0000 1.8287
312 74 7.9152 11.0726 11.0798 1.6963 0.0000 1.8281
313 74 6.3434 9.4858 12.6517 1.7726 0.0000 2.0948
314 74 7.9218 11.0765 14.2492 1.2297 0.0000 1.9663
315 74 6.3413 9.5037 15.8313 1.2134 0.0000 1.9879
316 74 7.9098 11.0834 17.4159 1.2663 0.0000 1.8892
317 74 6.3392 9.4938 19.0039 1.6194 0.0000 1.8447
318 74 7.9248 11.0608 20.5654 1.4570 0.0000 2.3346
319 74 6.3447 9.4966 22.1536 1.2103 0.0000 2.2201
320 74 7.9287 11.0855 23.7332 1.2883 0.0000 1.8017
321 74 6.3279 12.6476 0.0068 1.3311 0.0000 2.3000
322 74 7.9109 14.2331 1.5981 1.6538 0.0000 1.9770
323 74 6.3297 12.6540 3.1662 1.2273 0.0000 1.8770
324 74 7.9096 14.2634 4.7528 1.4486 0.0000 1.9166
325 74 6.3266 12.6562 6.3264 1.2956 0.0000 2.2050
326 74 7.9222 14.2443 7.9221 1.6404 0.0000 1.7817
327 74 6.3165 12.6560 9.4873 1.5514 0.0000 2.0275
328 74 7.9139 14.2356 11.0752 1.4350 0.0000 1.7784
329 74 6.3296 12.6503 12.6600 1.2480 0.0000 2.3150
330 74 7.9184 14.2581 14.2514 1.2165 0.0000 2.3560
331 74 6.3352 12.6734 15.8233 1.7384 0.0000 2.0827
332 74 7.9208 14.2397 17.4261 1.4515 0.0000 2.3966
333 74 6.3488 12.6455 18.9674 1.7959 0.0000 2.2741
334 74 7.9064 14.2399 20.5871 1.7497 0.0000 2.2798
335 74 6.3354 12.6577 22.1641 1.3423 0.0000 2.0084
336 74 7.9211 14.2430 23.7278 1.7511 0.0000 2.1782
337 74 6.3168 15.8281 -0.0097 1.6800 0.0000 2.1642
338 74 7.9303 17.4074 1.5886 1.4419 0.0000 2.2041
339 74 6.3193 15.8310 3.1688 1.5817 0.0000 2.3360
340 74 7.9106 17.4206 4.7530 1.6309 0.0000 1.7780
341 74 6.3328 15.8426 6.3371 1.7613 0.0000 1.9172
342 74 7.9132 17.3871 7.9151 1.5054 0.0000 1.8038
343 74 6.3339 15.8240 9.5006 1.3199 0.0000 1.8847
344 74 7.9017 17.3860 11.0810 1.4992 0.0000 1.9830
345 74 6.3230 15.8142 12.6830 1.4550 0.0000 2.1823
346 74 7.8979 17.4005 14.2549 1.4951 0.0000 2.1549
347 74 6.3345 15.8212 15.8338 1.2742 0.0000 1.9273
348 74 7.9191 17.4115 17.4213 1.2796 0.0000 2.3576
349 74 6.3446 15.8289 18.9908 1.5932 0.0000 1.9811
350 74 7.9245 17.4142 20.5680 1.5770 0.0000 2.1756
351 74 6.3466 15.8203 22.1632 1.7281 0.0000 1.8849
352 74 7.9172 17.3967 23.7407 1.6429 0.0000 2.2852
353 74 6.3373 18.9875 -0.0131 1.7766 0.0000 2.0587
354 74 7.9086 20.5566 1.5581 1.6773 0.0000 1.8542
355 74 6.3400 18.9836 3.1432 1.7811 0.0000 2.0327
356 74 7.9005 20.5731 4.7529 1.6228 0.0000 2.1136
357 74 6.3098 18.9706 6.3330 1.5576 0.0000 2.0784
358 74 7.9112 20.5844 7.9069 1.2634 0.0000 1.7978
359 74 6.3284 18.9950 9.4870 1.4796 0.0000 2.1817
360 74 7.9246 20.5701 11.0723 1.4355 0.0000 2.0369
361 74 6.3253 18.9833 12.6571 1.5920 0.0000 2.0738
362 74 7.9329 20.5612 14.2554 1.5350 0.0000 2.3558
363 74 6.3304 19.0010 15.8535 1.2114 0.0000 2.1534
364 74 7.9020 20.5719 17.3910 1.5842 0.0000 2.3336
365 74 6.3276 18.9957 18.9946 1.5959 0.0000 1.8238
366 74 7.9274 20.5451 20.5925 1.7493 0.0000 1.9545
367 74 6.3166 18.9918 22.1526 1.6898 0.0000 2.2528
368 74 7.9127 20.5604 23.7236 1.3433 0.0000 2.1803
369 74 6.3278 22.1589 -0.0091 1.4820 0.0000 2.1415
370 74 7.9191 23.7676 1.5821 1.7487 0.0000 2.2221
371 74 6.3523 22.1627 3.1615 1.7318 0.0000 2.1180
372 74 7.9066 23.7376 4.7471 1.7643 0.0000 2.1402
373 74 6.3337 22.1571 6.3493 1.2239 0.0000 2.1381
374 74 7.9043 23.7410 7.9165 1.3904 0.0000 1.9195
375 74 6.3371 22.1603 9.5067 1.2705 0.0000 2.2440
376 74 7.9103 23.7395 11.0722 1.3947 0.0000 2.3545
377 74 6.3326 22.1448 12.6549 1.5977 0.0000 2.1576
378 74 7.9122 23.7299 14.2418 1.7535 0.0000 2.2787
379 74 6.3204 22.1593 15.8120 1.3411 0.0000 1.8611
380 74 7.9124 23.7441 17.4112 1.6634 0.0000 2.3712
381 74 6.3219 22.1585 19.0037 1.3504 0.0000 1.8149
382 74 7.9247 23.7422 20.5759 1.3468 0.0000 2.0401
383 74 6.3292 22.1499 22.1470 1.5886 0.0000 1.9047
384 74 7.9006 23.7456 23.7353 1.7010 0.0000 1.8756
385 74 9.5055 -0.0039 0.0020 1.3336 0.0000 2.1650
386 74 11.0871 1.5735 1.5870 1.7795 0.0000 2.3556
387 74 9.4843 0.0066 3.1375 1.4865 0.0000 2.0950
388 74 11.0653 1.5801 4.7463 1.2135 0.0000 2.1854
389 74 9.4939 -0.0110 6.3303 1.6929 0.0000 2.2414
390 74 11.0705 1.5956 7.9086 1.5712 0.0000 2.3172
391 74 9.4939 0.0007 9.5015 1.5742 0.0000 2.0745
392 74 11.0913 1.5632 11.0869 1.2814 0.0000 2.1031
393 74 9.4932 -0.0035 12.6738 1.6449 0.0000 2.1389
394 74 11.0741 1.5957 14.2377 1.5318 0.0000 2.2656
395 74 9.4942 0.0042 15.8253 1.2919 0.0000 1.7856
396 74 11.0736 1.5802 17.3991 1.7114 0.0000 1.8099
397 74 9.4834 -0.0008 18.9917 1.4144 0.0000 2.3085
398 74 11.0794 1.5694 20.5511 1.5199 0.0000 2.1571
399 74 9.4940 0.0028 22.1383 1.3018 0.0000 2.0551
400 74 11.0892 1.5898 23.7592 1.2519 0.0000 2.1574
401 74 9.4931 3.1620 -0.0017 1.6656 0.0000 2.2920
402 74 11.0659 4.7550 1.5907 1.2203 0.0000 1.7766
403 74 9.4998 3.1558 3.1619 1.5869 0.0000 2.2338
404 74 11.0636 4.7508 4.7363 1.2443 0.0000 1.8445
405 74 9.4931 3.1671 6.3283 1.4790 0.0000 2.3503
406 74 11.0753 4.7351 7.9213 1.7472 0.0000 2.0582
407 74 9.5034 3.1712 9.4925 1.2929 0.0000 2.0208
408 74 11.0967 4.7259 11.0688 1.3176 0.0000 2.3042
409 74 9.4674 3.1489 12.6522 1.4149 0.0000 2.2635
410 74 11.0707 4.7504 14.2334 1.6916 0.0000 1.8850
411 74 9.4947 3.1562 15.8205 1.5825 0.0000 2.3727
412 74 11.0715 4.7458 17.3898 1.7352 0.0000 2.3313
413 74 9.4892 3.1647 19.0002 1.4364 0.0000 2.0336
414 74 11.0816 4.7346 20.5602 1.6118 0.0000 2.2469
415 74 9.4900 3.1496 22.1554 1.6536 0.0000 2.3187
416 74 11.0788 4.7462 23.7284 1.3344 0.0000 1.9535
417 74 9.4811 6.3210 -0.0092 1.6933 0.0000 1.8284
418 74 11.0596 7.9114 1.5825 1.5329 0.0000 1.9733
419 74 9.4709 6.3388 3.1642 1.6451 0.0000 1.8903
420 74 11.0806 7.9187 4.7395 1.4452 0.0000 2.1801
421 74 9.4898 6.3428 6.3263 1.7588 0.0000 2.3030
422 74 11.0729 7.9062 7.9103 1.7983 0.0000 2.2695
423 74 9.4869 6.3481 9.4790 1.6146 0.0000 2.2253
424 74 11.0725 7.8930 11.0930 1.5272 0.0000 2.1424
425 74 9.4937 6.3415 12.6610 1.2983 0.0000 2.2861
426 74 11.0826 7.9218 14.2318 1.5803 0.0000 2.0150
427 74 9.4961 6.3334 15.8174 1.7199 0.0000 2.2838
428 74 11.0961 7.9170 17.4263 1.7379 0.0000 1.8827
429 74 9.4904 6.3345 18.9943 1.7266 0.0000 1.9709
430 74 11.0729 7.9169 20.5674 1.4724 0.0000 1.9906
431 74 9.4864 6.3295 22.1608 1.5531 0.0000 2.3764
432 74 11.0706 7.8978 23.7375 1.3647 0.0000 2.0013
433 74 9.4989 9.4873 0.0066 1.5618 0.0000 2.2456
434 74 11.0838 11.0834 1.5906 1.2858 0.0000 1.9644
435 74 9.4927 9.4970 3.1641 1.6637 0.0000 2.4017
436 74 11.0725 11.0867 4.7488 1.3244 0.0000 1.8812
437 74 9.5099 9.4997 6.3510 1.7853 0.0000 1.8501
438 74 11.0983 11.0752 7.9039 1.7475 0.0000 1.8008
439 74 9.4934 9.4976 9.5103 1.4230 0.0000 1.7786
440 74 11.0768 11.0693 11.0821 1.5521 0.0000 1.8930
441 74 9.4962 9.5035 12.6612 1.3002 0.0000 2.0941
442 74 11.0815 11.0798 14.2432 1.6954 0.0000 2.2226
443 74 9.4951 9.4709 15.8134 1.7036 0.0000 2.1854
444 74 11.0733 11.0850 17.4122 1.3297 0.0000 1.7812
445 74 9.4879 9.4838 18.9933 1.3416 0.0000 2.0801
446 74 11.0933 11.0775 20.5933 1.7291 0.0000 2.1798
447 74 9.5101 9.4958 22.1450 1.3235 0.0000 2.0933
448 74 11.0684 11.0736 23.7597 1.4226 0.0000 2.1654
449 74 9.4962 12.6573 -0.0047 1.4769 0.0000 1.9964
450 74 11.0792 14.2345 1.5855 1.2552 0.0000 2.3906
451 74 9.4794 12.6650 3.1509 1.3352 0.0000 2.0742
452 74 11.0801 14.2509 4.7400 1.7904 0.0000 1.8118
453 74 9.4980 12.6391 6.3287 1.2898 0.0000 1.9878
454 74 11.0800 14.2538 7.9102 1.4775 0.0000 1.8002
455 74 9.5053 12.6672 9.5018 1.6299 0.0000 2.4001
456 74 11.0556 14.2401 11.0851 1.2177 0.0000 2.3309
457 74 9.4778 12.6426 12.6669 1.6209 0.0000 1.7838
458 74 11.0752 14.2413 14.2554 1.4763 0.0000 2.3230
459 74 9.5002 12.6588 15.8255 1.2810 0.0000 2.1185
460 74 11.0753 14.2478 17.4050 1.2577 0.0000 1.9822
461 74 9.4893 12.6590 18.9923 1.6789 0.0000 1.7993
462 74 11.0697 14.2420 20.5758 1.4073 0.0000 2.2464
463 74 9.4949 12.6587 22.1573 1.2608 0.0000 2.1792
464 74 11.0902 14.2543 23.7466 1.7475 0.0000 2.0237
465 74 9.4981 15.8112 -0.0089 1.2197 0.0000 1.7921
466 74 11.0730 17.4017 1.5856 1.5797 0.0000 2.2531
467 74 9.4885 15.8159 3.1582 1.2456 0.0000 2.0493
468 74 11.0675 17.4109 4.7468 1.4529 0.0000 1.8546
469 74 9.4873 15.8491 6.3423 1.5552 0.0000 1.8815
470 74 11.0884 17.3943 7.9155 1.7929 0.0000 1.9216
471 74 9.4913 15.8196 9.5106 1.7448 0.0000 1.8130
472 74 11.0840 17.4168 11.0607 1.4001 0.0000 1.8311
473 74 9.4834 15.8072 12.6499 1.6521 0.0000 1.9712
474 74 11.0809 17.4003 14.2423 1.3122 0.0000 1.9174
475 74 9.4943 15.8252 15.8353 1.3093 0.0000 2.1184
476 74 11.0760 17.3974 17.4110 1.5520 0.0000 2.1071
477 74 9.4914 15.8320 18.9882 1.6069 0.0000 2.1329
478 74 11.0839 17.4011 20.5731 1.6904 0.0000 1.9267
479 74 9.5003 15.8140 22.1649 1.2994 0.0000 2.0448
480 74 11.0850 17.3966 23.7374 1.3160 0.0000 1.8002
481 74 9.4996 18.9865 0.0069 1.2374 0.0000 2.2846
482 74 11.0758 20.5752 1.5919 1.4386 0.0000 1.8303
483 74 9.4919 18.9955 3.1640 1.6471 0.0000 1.8873
484 74 11.0679 20.5777 4.7428 1.3703 0.0000 2.2112
485 74 9.4917 19.0076 6.3223 1.7219 0.0000 1.9443
486 74 11.0821 20.5705 7.9231 1.5776 0.0000 2.0309
487 74 9.4841 19.0029 9.5063 1.2658 0.0000 2.1393
488 74 11.0616 20.5768 11.0705 1.4751 0.0000 2.2097
489 74 9.4853 18.9861 12.6609 1.6567 0.0000 1.8162
490 74 11.0835 20.5656 14.2315 1.7376 0.0000 2.2914
491 74 9.5033 19.0046 15.8442 1.6976 0.0000 2.3934
492 74 11.0620 20.5765 17.4201 1.6459 0.0000 1.9429
493 74 9.5044 18.9847 18.9954 1.5126 0.0000 1.7812
494 74 11.0880 20.5692 20.5881 1.6919 0.0000 2.0149
495 74 9.4781 18.9842 22.1569 1.7191 0.0000 2.1721
496 74 11.0798 20.5626 23.7320 1.5150 0.0000 2.2218
497 74 9.4942 22.1471 0.0032 1.5549 0.0000 1.9419
498 74 11.0892 23.7249 1.5769 1.5668 0.0000 2.3707
499 74 9.4921 22.1616 3.1691 1.4667 0.0000 1.8570
500 74 11.0551 23.7314 4.7502 1.5252 0.0000 2.0340
501 74 9.4999 22.1448 6.3390 1.7236 0.0000 2.3406
502 74 11.0789 23.7328 7.9202 1.4029 0.0000 1.8884
503 74 9.4991 22.1708 9.4835 1.2318 0.0000 2.0070
504 74 11.0797 23.7285 11.0776 1.5676 0.0000 1.9989
505 74 9.5022 22.1654 12.6403 1.5139 0.0000 1.9397
506 74 11.0824 23.7231 14.2334 1.4038 0.0000 1.7974
507 74 9.5019 22.1593 15.8180 1.6275 0.0000 1.9402
508 74 11.0786 23.7380 17.4135 1.6715 0.0000 2.3180
509 74 9.4883 22.1607 19.0069 1.6268 0.0000 2.2635
510 74 11.0700 23.7446 20.5632 1.4656 0.0000 1.9429
511 74 9.4966 22.1586 22.1620 1.5861 0.0000 2.1130
512 74 11.0762 23.7336 23.7500 1.2354 0.0000 1.7946
513 74 12.6681 -0.0040 0.0043 1.6467 0.0000 2.1803
514 74 14.2539 1.5894 1.5803 1.3993 0.0000 1.8516
515 74 12.6509 0.0028 3.1716 1.5987 0.0000 2.3495
516 74 14.2388 1.5899 4.7395 1.4466 0.0000 2.1145
517 74 12.6494 -0.0041 6.3333 1.4771 0.0000 1.9626
518 74 14.2561 1.5769 7.8996 1.5705 0.0000 2.1405
519 74 12.6785 -0.0019 9.4910 1.3843 0.0000 2.0272
520 74 14.2495 1.5802 11.0811 1.4765 0.0000 1.7880
521 74 12.6505 0.0097 12.6564 1.4626 0.0000 2.1587
522 74 14.2344 1.5849 14.2448 1.5580 0.0000 2.0014
523 74 12.6645 -0.0040 15.8350 1.4851 0.0000 2.1163
524 74 14.2600 1.5816 17.4065 1.5382 0.0000 2.0223
525 74 12.6555 -0.0047 18.9906 1.4759 0.0000 1.9557
526 74 14.2335 1.5731 20.5576 1.6712 0.0000 2.2198
527 74 12.6529 -0.0007 22.1548 1.6315 0.0000 1.9132
528 74 14.2371 1.5876 23.7464 1.5351 0.0000 1.8135
529 74 12.6671 3.1733 -0.0030 1.3229 0.0000 1.8798
530 74 14.2403 4.7504 1.5854 1.2688 0.0000 2.0283
531 74 12.6588 3.1705 3.1603 1.2529 0.0000 2.1838
532 74 14.2531 4.7407 4.7415 1.6363 0.0000 2.1421
533 74 12.6609 3.1614 6.3409 1.3822 0.0000 2.1397
534 74 14.2518 4.7246 7.9306 1.7286 0.0000 1.8649
535 74 12.6589 3.1810 9.4796 1.7313 0.0000 2.1883
536 74 14.2496 4.7664 11.0866 1.2848 0.0000 2.1331
537 74 12.6694 3.1669 12.6546 1.7530 0.0000 1.9010
538 74 14.2367 4.7308 14.2440 1.3596 0.0000 2.2639
539 74 12.6584 3.1666 15.8301 1.5120 0.0000 2.1593
540 74 14.2436 4.7469 17.4187 1.3826 0.0000 2.3307
541 74 12.6442 3.1623 18.9830 1.5210 0.0000 2.3555
542 74 14.2347 4.7341 20.5516 1.2266 0.0000 2.0290
543 74 12.6529 3.1576 22.1541 1.5367 0.0000 1.9804
544 74 14.2290 4.7459 23.7437 1.8013 0.0000 2.2246
545 74 12.6579 6.3301 -0.0010 1.4424 0.0000 2.3401
546 74 14.2341 7.9133 1.5780 1.2504 0.0000 2.2264
547 74 12.6536 6.3118 3.1648 1.4079 0.0000 1.8716
548 74 14.2497 7.9186 4.7382 1.6000 0.0000 2.2647
549 74 12.6600 6.3357 6.3247 1.4791 0.0000 2.3184
550 74 14.2201 7.9147 7.9023 1.6820 0.0000 2.2245
551 74 12.6730 6.3386 9.5015 1.3493 0.0000 2.2451
552 74 14.2436 7.9154 11.0867 1.4174 0.0000 2.0857
553 74 12.6682 6.3280 12.6733 1.5025 0.0000 2.3472
554 74 14.2423 7.9047 14.2390 1.3316 0.0000 1.7775
555 74 12.6539 6.3010 15.8145 1.2584 0.0000 2.1150
556 74 14.2452 7.9170 17.4051 1.3142 0.0000 1.9271
557 74 12.6725 6.3362 18.9814 1.2803 0.0000 1.8903
558 74 14.2528 7.9179 20.5655 1.6097 0.0000 2.0893
559 74 12.6520 6.3320 22.1403 1.4633 0.0000 2.2875
560 74 14.2355 7.9095 23.7331 1.6772 0.0000 1.9105
561 74 12.6569 9.5183 0.0241 1.4443 0.0000 2.1994
562 74 14.2345 11.0719 1.5668 1.7613 0.0000 1.8585
563 74 12.6602 9.5027 3.1758 1.3057 0.0000 2.1303
564 74 14.2333 11.0666 4.7326 1.4820 0.0000 2.2184
565 74 12.6599 9.4955 6.3303 1.2203 0.0000 2.1108
566 74 14.2427 11.0690 7.9116 1.3236 0.0000 1.9669
567 74 12.6402 9.5211 9.4973 1.7119 0.0000 2.0268
568 74 14.2427 11.0647 11.0782 1.3160 0.0000 2.3866
569 74 12.6637 9.4872 12.6602 1.5943 0.0000 2.1763
570 74 14.2488 11.0773 14.2524 1.4263 0.0000 2.1653
571 74 12.6599 9.4982 15.8297 1.6853 0.0000 1.7809
572 74 14.2443 11.0731 17.4103 1.8003 0.0000 2.1176
573 74 12.6582 9.5120 19.0112 1.2885 0.0000 1.9498
574 74 14.2351 11.0824 20.5669 1.7049 0.0000 1.8576
575 74 12.6404 9.5082 22.1550 1.6777 0.0000 2.1765
576 74 14.2525 11.0854 23.7402 1.7454 0.0000 2.0516
577 74 12.6496 12.6528 0.0148 1.7711 0.0000 2.0268
578 74 14.2372 14.2577 1.5765 1.7014 0.0000 1.9490
579 74 12.6613 12.6713 3.1827 1.2201 0.0000 1.8998
580 74 14.2428 14.2454 4.7441 1.6734 0.0000 1.9565
581 74 12.6584 12.6538 6.3267 1.7467 0.0000 2.2985
582 74 14.2468 14.2525 7.9219 1.7260 0.0000 2.1911
583 74 12.6545 12.6578 9.5076 1.7051 0.0000 2.0242
584 74 14.2400 14.2275 11.0710 1.7258 0.0000 2.0162
585 74 12.6440 12.6800 12.6598 1.6039 0.0000 1.7826
586 74 14.2471 14.2412 14.2537 1.5813 0.0000 2.0116
587 74 12.6430 12.6517 15.8264 1.6274 0.0000 2.3962
588 74 14.2401 14.2540 17.4060 1.3029 0.0000 1.9538
589 74 12.6557 12.6646 18.9947 1.6456 0.0000 2.3073
590 74 14.2321 14.2387 20.5777 1.6588 0.0000 2.0279
591 74 12.6568 12.6449 22.1468 1.6778 0.0000 1.7936
592 74 14.2483 14.2361 23.7344 1.6987 0.0000 1.8145
593 74 12.6551 15.8181 -0.0011 1.4323 0.0000 2.1789