ITEM: TIMESTEP
0
ITEM: NUMBER OF ATOMS
1024
ITEM: BOX BOUNDS pp pp pp
0.0 26.4400
0.0 26.4400
0.0 26.4400
ITEM: ATOMS id type x y z error strain stiffness
1 73 0.0005 -0.0016 -0.0016 0.1739 0.0000 0.2664
2 73 1.6514 1.6534 1.6533 0.2027 0.0000 0.2883
3 73 0.0016 -0.0011 3.3053 0.2038 0.0000 0.2543
4 73 1.6505 1.6546 4.9569 0.2060 0.0000 0.2556
5 73 -0.0010 0.0001 6.6101 0.2015 0.0000 0.2443
6 73 1.6519 1.6504 8.2626 0.2324 0.0000 0.2735
7 73 -0.0017 -0.0012 9.9147 0.1688 0.0000 0.2705
8 73 1.6530 1.6518 11.5658 0.2282 0.0000 0.2492
9 73 0.0000 0.0001 13.2210 0.1674 0.0000 0.2656
10 73 1.6551 1.6524 14.8717 0.1733 0.0000 0.2674
11 73 0.0019 0.0009 16.5285 0.2024 0.0000 0.2708
12 73 1.6525 1.6524 18.1814 0.1709 0.0000 0.2500
13 73 -0.0011 0.0005 19.8299 0.2089 0.0000 0.2340
14 73 1.6529 1.6520 21.4849 0.1714 0.0000 0.2539
15 73 -0.0002 0.0000 23.1344 0.2153 0.0000 0.2591
16 73 1.6538 1.6513 24.7895 0.2432 0.0000 0.2634
17 73 -0.0003 3.3038 0.0006 0.2313 0.0000 0.2447
18 73 1.6534 4.9575 1.6530 0.2094 0.0000 0.2855
19 73 -0.0003 3.3041 3.3073 0.1718 0.0000 0.2671
20 73 1.6510 4.9588 4.9596 0.2178 0.0000 0.2553
21 73 -0.0016 3.3074 6.6113 0.2112 0.0000 0.2419
22 73 1.6524 4.9546 8.2617 0.2011 0.0000 0.2386
23 73 -0.0015 3.3051 9.9143 0.2406 0.0000 0.2181
24 73 1.6518 4.9544 11.5670 0.1922 0.0000 0.2688
25 73 -0.0013 3.3043 13.2191 0.1627 0.0000 0.2807
26 73 1.6548 4.9571 14.8737 0.1697 0.0000 0.2192
27 73 -0.0012 3.3068 16.5260 0.2002 0.0000 0.2546
28 73 1.6524 4.9570 18.1781 0.1826 0.0000 0.2771
29 73 0.0021 3.3071 19.8311 0.1678 0.0000 0.2156
30 73 1.6512 4.9583 21.4801 0.2428 0.0000 0.2273
31 73 0.0005 3.3059 23.1351 0.1626 0.0000 0.2816
32 73 1.6540 4.9561 24.7880 0.2408 0.0000 0.2309
33 73 -0.0011 6.6090 -0.0006 0.1701 0.0000 0.2498
34 73 1.6528 8.2612 1.6520 0.2041 0.0000 0.2277
35 73 -0.0012 6.6104 3.3052 0.2380 0.0000 0.2567
36 73 1.6533 8.2600 4.9578 0.2302 0.0000 0.2217
37 73 0.0001 6.6102 6.6131 0.1951 0.0000 0.2383
38 73 1.6516 8.2628 8.2633 0.2150 0.0000 0.2500
39 73 -0.0008 6.6103 9.9141 0.2330 0.0000 0.2171
40 73 1.6521 8.2645 11.5668 0.1768 0.0000 0.2640
41 73 -0.0005 6.6099 13.2194 0.2275 0.0000 0.2890
42 73 1.6515 8.2627 14.8724 0.1739 0.0000 0.2161
43 73 0.0004 6.6085 16.5230 0.2228 0.0000 0.2435
44 73 1.6501 8.2640 18.1767 0.1960 0.0000 0.2521
45 73 0.0005 6.6099 19.8306 0.1650 0.0000 0.2771
46 73 1.6504 8.2618 21.4805 0.1807 0.0000 0.2282
47 73 0.0018 6.6098 23.1340 0.1782 0.0000 0.2759
48 73 1.6543 8.2635 24.7870 0.2288 0.0000 0.2651
49 73 0.0011 9.9144 -0.0020 0.1703 0.0000 0.2464
50 73 1.6523 11.5688 1.6506 0.2169 0.0000 0.2390
51 73 -0.0007 9.9179 3.3055 0.1911 0.0000 0.2469
52 73 1.6518 11.5665 4.9572 0.1686 0.0000 0.2302
53 73 0.0003 9.9159 6.6078 0.1800 0.0000 0.2259
54 73 1.6560 11.5663 8.2616 0.2008 0.0000 0.2571
55 73 -0.0003 9.9149 9.9158 0.1900 0.0000 0.2642
56 73 1.6518 11.5683 11.5671 0.1759 0.0000 0.2315
57 73 -0.0000 9.9177 13.2210 0.1899 0.0000 0.2564
58 73 1.6522 11.5666 14.8733 0.1698 0.0000 0.2364
59 73 0.0017 9.9176 16.5257 0.1957 0.0000 0.2583
60 73 1.6519 11.5691 18.1777 0.2315 0.0000 0.2405
61 73 0.0004 9.9155 19.8311 0.1872 0.0000 0.2282
62 73 1.6520 11.5675 21.4834 0.1672 0.0000 0.2796
63 73 -0.0008 9.9156 23.1338 0.2125 0.0000 0.2841
64 73 1.6530 11.5679 24.7888 0.1796 0.0000 0.2621
65 73 0.0001 13.2199 0.0007 0.2315 0.0000 0.2225
66 73 1.6519 14.8745 1.6551 0.1645 0.0000 0.2340
67 73 -0.0000 13.2173 3.3049 0.2157 0.0000 0.2190
68 73 1.6535 14.8738 4.9555 0.1963 0.0000 0.2362
69 73 -0.0003 13.2205 6.6100 0.2076 0.0000 0.2869
70 73 1.6510 14.8697 8.2616 0.2178 0.0000 0.2868
71 73 -0.0005 13.2176 9.9157 0.1725 0.0000 0.2796
72 73 1.6520 14.8727 11.5661 0.1823 0.0000 0.2488
73 73 -0.0002 13.2192 13.2192 0.2074 0.0000 0.2234
74 73 1.6531 14.8723 14.8726 0.1753 0.0000 0.2218
75 73 0.0006 13.2195 16.5240 0.1735 0.0000 0.2148
76 73 1.6530 14.8736 18.1780 0.1782 0.0000 0.2755
77 73 -0.0016 13.2194 19.8298 0.2182 0.0000 0.2388
78 73 1.6506 14.8709 21.4824 0.1839 0.0000 0.2667
79 73 0.0008 13.2224 23.1334 0.1871 0.0000 0.2782
80 73 1.6544 14.8733 24.7863 0.1720 0.0000 0.2152
81 73 0.0019 16.5266 -0.0025 0.2149 0.0000 0.2554
82 73 1.6529 18.1786 1.6524 0.2031 0.0000 0.2534
83 73 -0.0021 16.5242 3.3066 0.1765 0.0000 0.2265
84 73 1.6514 18.1783 4.9564 0.2261 0.0000 0.2651
85 73 -0.0013 16.5240 6.6073 0.1837 0.0000 0.2230
86 73 1.6511 18.1758 8.2638 0.1799 0.0000 0.2566
87 73 -0.0008 16.5269 9.9156 0.2171 0.0000 0.2804
88 73 1.6536 18.1776 11.5664 0.1710 0.0000 0.2157
89 73 0.0004 16.5249 13.2196 0.2224 0.0000 0.2892
90 73 1.6544 18.1781 14.8734 0.2074 0.0000 0.2668
91 73 0.0012 16.5253 16.5265 0.1666 0.0000 0.2871
92 73 1.6501 18.1767 18.1765 0.1843 0.0000 0.2842
93 73 0.0003 16.5262 19.8319 0.2170 0.0000 0.2823
94 73 1.6549 18.1778 21.4822 0.2327 0.0000 0.2644
95 73 -0.0003 16.5235 23.1355 0.1763 0.0000 0.2278
96 73 1.6526 18.1798 24.7868 0.1679 0.0000 0.2314
97 73 -0.0016 19.8278 -0.0012 0.1986 0.0000 0.2627
98 73 1.6512 21.4841 1.6520 0.2095 0.0000 0.2333
99 73 -0.0014 19.8290 3.3066 0.1744 0.0000 0.2603
100 73 1.6486 21.4834 4.9579 0.1763 0.0000 0.2703
101 73 -0.0021 19.8313 6.6082 0.2029 0.0000 0.2237
102 73 1.6524 21.4832 8.2629 0.2291 0.0000 0.2813
103 73 0.0005 19.8312 9.9158 0.1929 0.0000 0.2375
104 73 1.6530 21.4818 11.5670 0.1818 0.0000 0.2681
105 73 -0.0011 19.8293 13.2217 0.2114 0.0000 0.2285
106 73 1.6519 21.4820 14.8744 0.1936 0.0000 0.2190
107 73 0.0015 19.8305 16.5248 0.2010 0.0000 0.2472
108 73 1.6530 21.4839 18.1782 0.1755 0.0000 0.2368
109 73 0.0013 19.8290 19.8297 0.1716 0.0000 0.2418
110 73 1.6524 21.4804 21.4832 0.2391 0.0000 0.2863
111 73 -0.0013 19.8291 23.1348 0.1977 0.0000 0.2320
112 73 1.6501 21.4832 24.7886 0.2390 0.0000 0.2765
113 73 -0.0008 23.1352 -0.0003 0.2047 0.0000 0.2269
114 73 1.6542 24.7869 1.6522 0.1659 0.0000 0.2758
115 73 0.0026 23.1316 3.3040 0.1687 0.0000 0.2667
116 73 1.6522 24.7864 4.9538 0.1764 0.0000 0.2797
117 73 0.0000 23.1365 6.6102 0.2380 0.0000 0.2173
118 73 1.6529 24.7865 8.2608 0.2185 0.0000 0.2301
119 73 -0.0009 23.1373 9.9142 0.1641 0.0000 0.2425
120 73 1.6536 24.7885 11.5679 0.2102 0.0000 0.2737
121 73 -0.0009 23.1339 13.2188 0.1754 0.0000 0.2254
122 73 1.6514 24.7852 14.8726 0.1669 0.0000 0.2296
123 73 -0.0013 23.1337 16.5234 0.1651 0.0000 0.2499
124 73 1.6550 24.7847 18.1739 0.2223 0.0000 0.2748
125 73 -0.0004 23.1344 19.8288 0.1921 0.0000 0.2253
126 73 1.6536 24.7879 21.4848 0.1757 0.0000 0.2502
127 73 -0.0005 23.1369 23.1356 0.2344 0.0000 0.2709
128 73 1.6501 24.7891 24.7873 0.2181 0.0000 0.2792
129 73 3.3079 -0.0011 -0.0018 0.2277 0.0000 0.2736
130 73 4.9572 1.6518 1.6510 0.1968 0.0000 0.2810
131 73 3.3069 -0.0001 3.3057 0.2031 0.0000 0.2835
132 73 4.9573 1.6511 4.9572 0.2303 0.0000 0.2491
133 73 3.3063 -0.0004 6.6101 0.2190 0.0000 0.2305
134 73 4.9585 1.6534 8.2623 0.2290 0.0000 0.2365
135 73 3.3071 0.0030 9.9151 0.2411 0.0000 0.2715
136 73 4.9594 1.6505 11.5676 0.2094 0.0000 0.2391
137 73 3.3045 0.0010 13.2199 0.1633 0.0000 0.2465
138 73 4.9578 1.6539 14.8704 0.2202 0.0000 0.2567
139 73 3.3034 0.0005 16.5264 0.2368 0.0000 0.2475
140 73 4.9597 1.6517 18.1768 0.2213 0.0000 0.2532
141 73 3.3047 -0.0006 19.8335 0.2383 0.0000 0.2698
142 73 4.9563 1.6541 21.4843 0.1786 0.0000 0.2244
143 73 3.3039 -0.0008 23.1352 0.2209 0.0000 0.2737
144 73 4.9587 1.6530 24.7889 0.2316 0.0000 0.2196
145 73 3.3033 3.3038 0.0015 0.1892 0.0000 0.2626
146 73 4.9574 4.9573 1.6524 0.2422 0.0000 0.2173
147 73 3.3045 3.3030 3.3064 0.2292 0.0000 0.2535
148 73 4.9581 4.9573 4.9600 0.2084 0.0000 0.2832
149 73 3.3057 3.3063 6.6106 0.1631 0.0000 0.2517
150 73 4.9559 4.9559 8.2648 0.1650 0.0000 0.2609
151 73 3.3044 3.3045 9.9156 0.2070 0.0000 0.2606
152 73 4.9579 4.9561 11.5663 0.1925 0.0000 0.2404
153 73 3.3056 3.3065 13.2187 0.2224 0.0000 0.2886
154 73 4.9573 4.9591 14.8718 0.1955 0.0000 0.2620
155 73 3.3069 3.3042 16.5253 0.2347 0.0000 0.2242
156 73 4.9584 4.9591 18.1787 0.2362 0.0000 0.2374
157 73 3.3048 3.3063 19.8285 0.1831 0.0000 0.2769
158 73 4.9567 4.9603 21.4807 0.1992 0.0000 0.2802
159 73 3.3054 3.3070 23.1328 0.2358 0.0000 0.2240
160 73 4.9571 4.9582 24.7886 0.2416 0.0000 0.2400
161 73 3.3047 6.6068 -0.0008 0.2426 0.0000 0.2374
162 73 4.9589 8.2618 1.6518 0.2205 0.0000 0.2279
163 73 3.3032 6.6102 3.3050 0.1987 0.0000 0.2639
164 73 4.9589 8.2637 4.9591 0.2367 0.0000 0.2648
165 73 3.3053 6.6106 6.6086 0.1713 0.0000 0.2747
166 73 4.9578 8.2626 8.2641 0.1660 0.0000 0.2155
167 73 3.3064 6.6118 9.9177 0.2322 0.0000 0.2416
168 73 4.9561 8.2629 11.5656 0.2357 0.0000 0.2318
169 73 3.3058 6.6122 13.2220 0.2213 0.0000 0.2683
170 73 4.9582 8.2615 14.8714 0.2293 0.0000 0.2494
171 73 3.3047 6.6095 16.5236 0.2273 0.0000 0.2249
172 73 4.9554 8.2629 18.1792 0.1711 0.0000 0.2424
173 73 3.3034 6.6098 19.8289 0.2405 0.0000 0.2449
174 73 4.9582 8.2611 21.4812 0.2212 0.0000 0.2342
175 73 3.3058 6.6099 23.1325 0.1756 0.0000 0.2773
176 73 4.9563 8.2614 24.7870 0.2415 0.0000 0.2368
177 73 3.3054 9.9146 -0.0026 0.2155 0.0000 0.2628
178 73 4.9582 11.5667 1.6491 0.1650 0.0000 0.2329
179 73 3.3067 9.9164 3.3037 0.1934 0.0000 0.2574
180 73 4.9557 11.5688 4.9589 0.1831 0.0000 0.2761
181 73 3.3034 9.9142 6.6112 0.1838 0.0000 0.2406
182 73 4.9566 11.5687 8.2644 0.2194 0.0000 0.2511
183 73 3.3071 9.9141 9.9161 0.1754 0.0000 0.2608
184 73 4.9569 11.5678 11.5681 0.1630 0.0000 0.2680
185 73 3.3073 9.9157 13.2192 0.1983 0.0000 0.2321
186 73 4.9550 11.5680 14.8726 0.1869 0.0000 0.2267
187 73 3.3020 9.9162 16.5254 0.1643 0.0000 0.2504
188 73 4.9573 11.5661 18.1773 0.2267 0.0000 0.2227
189 73 3.3046 9.9165 19.8299 0.1862 0.0000 0.2582
190 73 4.9594 11.5677 21.4844 0.2075 0.0000 0.2619
191 73 3.3046 9.9131 23.1339 0.2033 0.0000 0.2514
192 73 4.9561 11.5654 24.7832 0.1736 0.0000 0.2594
193 73 3.3050 13.2196 -0.0029 0.2314 0.0000 0.2517
194 73 4.9588 14.8744 1.6496 0.2344 0.0000 0.2565
195 73 3.3075 13.2202 3.3034 0.2186 0.0000 0.2166
196 73 4.9570 14.8711 4.9591 0.2066 0.0000 0.2780
197 73 3.3040 13.2215 6.6114 0.2273 0.0000 0.2228
198 73 4.9606 14.8760 8.2609 0.2099 0.0000 0.2229
199 73 3.3037 13.2211 9.9140 0.2426 0.0000 0.2623
200 73 4.9564 14.8745 11.5661 0.2216 0.0000 0.2353
201 73 3.3058 13.2218 13.2170 0.2140 0.0000 0.2314
202 73 4.9587 14.8701 14.8737 0.2248 0.0000 0.2515
203 73 3.3031 13.2195 16.5262 0.1637 0.0000 0.2802
204 73 4.9582 14.8757 18.1751 0.1880 0.0000 0.2168
205 73 3.3038 13.2210 19.8286 0.2013 0.0000 0.2784
206 73 4.9587 14.8751 21.4834 0.2253 0.0000 0.2669
207 73 3.3046 13.2193 23.1374 0.2384 0.0000 0.2275
208 73 4.9565 14.8717 24.7862 0.2176 0.0000 0.2582
209 73 3.3065 16.5251 0.0003 0.2103 0.0000 0.2447
210 73 4.9558 18.1773 1.6541 0.1779 0.0000 0.2728
211 73 3.3047 16.5247 3.3056 0.2396 0.0000 0.2492
212 73 4.9562 18.1777 4.9584 0.2219 0.0000 0.2358
213 73 3.3040 16.5266 6.6077 0.2325 0.0000 0.2315
214 73 4.9576 18.1791 8.2649 0.2390 0.0000 0.2676
215 73 3.3075 16.5248 9.9140 0.2265 0.0000 0.2690
216 73 4.9573 18.1776 11.5686 0.1643 0.0000 0.2569
217 73 3.3060 16.5239 13.2193 0.1775 0.0000 0.2528
218 73 4.9584 18.1776 14.8716 0.1684 0.0000 0.2181
219 73 3.3038 16.5238 16.5233 0.2308 0.0000 0.2787
220 73 4.9575 18.1759 18.1769 0.1741 0.0000 0.2143
221 73 3.3067 16.5232 19.8296 0.2279 0.0000 0.2160
222 73 4.9595 18.1776 21.4827 0.2416 0.0000 0.2177
223 73 3.3057 16.5247 23.1355 0.1667 0.0000 0.2793
224 73 4.9589 18.1777 24.7872 0.1796 0.0000 0.2218
225 73 3.3052 19.8305 0.0005 0.2030 0.0000 0.2143
226 73 4.9582 21.4819 1.6541 0.1676 0.0000 0.2587
227 73 3.3042 19.8300 3.3073 0.1932 0.0000 0.2889
228 73 4.9571 21.4813 4.9579 0.1761 0.0000 0.2850
229 73 3.3050 19.8272 6.6101 0.1913 0.0000 0.2202
230 73 4.9588 21.4824 8.2641 0.2215 0.0000 0.2862
231 73 3.3062 19.8292 9.9164 0.2050 0.0000 0.2164
232 73 4.9544 21.4840 11.5664 0.2074 0.0000 0.2621
233 73 3.3052 19.8303 13.2201 0.1945 0.0000 0.2822
234 73 4.9578 21.4833 14.8718 0.2263 0.0000 0.2325
235 73 3.3079 19.8280 16.5245 0.1844 0.0000 0.2548
236 73 4.9530 21.4815 18.1782 0.2316 0.0000 0.2584
237 73 3.3043 19.8313 19.8294 0.2044 0.0000 0.2821
238 73 4.9574 21.4815 21.4803 0.2421 0.0000 0.2602
239 73 3.3052 19.8317 23.1356 0.2233 0.0000 0.2641
240 73 4.9564 21.4828 24.7883 0.2073 0.0000 0.2776
241 73 3.3071 23.1334 0.0020 0.2334 0.0000 0.2209
242 73 4.9574 24.7876 1.6513 0.2133 0.0000 0.2372
243 73 3.3060 23.1342 3.3023 0.2218 0.0000 0.2711
244 73 4.9574 24.7874 4.9562 0.1902 0.0000 0.2783
245 73 3.3051 23.1337 6.6074 0.2133 0.0000 0.2226
246 73 4.9582 24.7874 8.2642 0.1656 0.0000 0.2576
247 73 3.3061 23.1342 9.9148 0.2281 0.0000 0.2849
248 73 4.9579 24.7871 11.5689 0.2126 0.0000 0.2261
249 73 3.3036 23.1345 13.2200 0.1904 0.0000 0.2816
250 73 4.9568 24.7871 14.8723 0.2234 0.0000 0.2346
251 73 3.3065 23.1350 16.5252 0.1939 0.0000 0.2685
252 73 4.9592 24.7867 18.1763 0.1773 0.0000 0.2404
253 73 3.3050 23.1325 19.8285 0.2389 0.0000 0.2315
254 73 4.9582 24.7872 21.4832 0.1944 0.0000 0.2221
255 73 3.3019 23.1335 23.1337 0.2041 0.0000 0.2498
256 73 4.9573 24.7911 24.7850 0.2201 0.0000 0.2653
257 73 6.6111 -0.0003 0.0022 0.1898 0.0000 0.2359
258 73 8.2616 1.6526 1.6529 0.1657 0.0000 0.2498
259 73 6.6091 0.0005 3.3025 0.2021 0.0000 0.2576
260 73 8.2621 1.6505 4.9583 0.2272 0.0000 0.2537
261 73 6.6113 -0.0020 6.6083 0.1773 0.0000 0.2425
262 73 8.2631 1.6523 8.2630 0.2397 0.0000 0.2507
263 73 6.6093 0.0010 9.9139 0.1809 0.0000 0.2532
264 73 8.2629 1.6524 11.5660 0.2105 0.0000 0.2452
265 73 6.6110 0.0002 13.2216 0.1629 0.0000 0.2181
266 73 8.2620 1.6517 14.8726 0.2405 0.0000 0.2799
267 73 6.6088 -0.0003 16.5251 0.2071 0.0000 0.2696
268 73 8.2630 1.6511 18.1768 0.1769 0.0000 0.2740
269 73 6.6103 -0.0024 19.8300 0.2142 0.0000 0.2357
270 73 8.2636 1.6511 21.4827 0.2418 0.0000 0.2353
271 73 6.6095 0.0003 23.1342 0.2008 0.0000 0.2372
272 73 8.2619 1.6527 24.7855 0.2041 0.0000 0.2187
273 73 6.6093 3.3063 0.0001 0.1889 0.0000 0.2564
274 73 8.2624 4.9566 1.6522 0.2072 0.0000 0.2720
275 73 6.6123 3.3029 3.3055 0.1846 0.0000 0.2159
276 73 8.2646 4.9574 4.9596 0.2204 0.0000 0.2145
277 73 6.6082 3.3047 6.6086 0.2197 0.0000 0.2288
278 73 8.2649 4.9575 8.2618 0.1903 0.0000 0.2619
279 73 6.6098 3.3070 9.9130 0.1965 0.0000 0.2177
280 73 8.2627 4.9572 11.5648 0.1776 0.0000 0.2825
281 73 6.6101 3.3068 13.2211 0.2189 0.0000 0.2685
282 73 8.2634 4.9561 14.8731 0.2349 0.0000 0.2639
283 73 6.6103 3.3057 16.5242 0.1791 0.0000 0.2537
284 73 8.2624 4.9584 18.1762 0.2157 0.0000 0.2335
285 73 6.6116 3.3037 19.8288 0.1734 0.0000 0.2270
286 73 8.2649 4.9566 21.4813 0.1944 0.0000 0.2746
287 73 6.6088 3.3042 23.1328 0.1742 0.0000 0.2227
288 73 8.2631 4.9563 24.7873 0.2048 0.0000 0.2744
289 73 6.6106 6.6098 0.0019 0.2121 0.0000 0.2233
290 73 8.2636 8.2631 1.6521 0.1633 0.0000 0.2886
291 73 6.6120 6.6089 3.3062 0.2341 0.0000 0.2514
292 73 8.2610 8.2636 4.9575 0.2337 0.0000 0.2150
293 73 6.6126 6.6099 6.6113 0.1739 0.0000 0.2800
294 73 8.2625 8.2652 8.2626 0.1808 0.0000 0.2592
295 73 6.6110 6.6111 9.9135 0.1989 0.0000 0.2381
296 73 8.2635 8.2614 11.5690 0.1752 0.0000 0.2405
297 73 6.6093 6.6106 13.2194 0.2051 0.0000 0.2490
298 73 8.2649 8.2622 14.8718 0.2153 0.0000 0.2713
299 73 6.6102 6.6110 16.5241 0.1976 0.0000 0.2834
300 73 8.2631 8.2615 18.1780 0.1718 0.0000 0.2268
301 73 6.6092 6.6102 19.8316 0.1868 0.0000 0.2423
302 73 8.2642 8.2622 21.4815 0.2281 0.0000 0.2842
303 73 6.6100 6.6106 23.1356 0.1847 0.0000 0.2281
304 73 8.2623 8.2631 24.7898 0.1897 0.0000 0.2724
305 73 6.6083 9.9134 0.0005 0.2298 0.0000 0.2359
306 73 8.2632 11.5678 1.6526 0.1938 0.0000 0.2829
307 73 6.6099 9.9148 3.3053 0.1662 0.0000 0.2635
308 73 8.2638 11.5670 4.9564 0.2345 0.0000 0.2376
309 73 6.6097 9.9162 6.6111 0.2180 0.0000 0.2694
310 73 8.2634 11.5680 8.2629 0.2243 0.0000 0.2501
311 73 6.6068 9.9146 9.9149 0.1647 0.0000 0.2540
312 73 8.2631 11.5695 11.5650 0.1816 0.0000 0.2421
313 73 6.6103 9.9146 13.2216 0.1725 0.0000 0.2269
314 73 8.2637 11.5647 14.8728 0.2019 0.0000 0.2776
315 73 6.6094 9.9145 16.5250 0.2052 0.0000 0.2194
316 73 8.2631 11.5680 18.1759 0.2211 0.0000 0.2497
317 73 6.6101 9.9153 19.8291 0.2072 0.0000 0.2292
318 73 8.2630 11.5669 21.4830 0.1740 0.0000 0.2604
319 73 6.6086 9.9152 23.1356 0.1790 0.0000 0.2861
320 73 8.2638 11.5673 24.7893 0.1997 0.0000 0.2571
321 73 6.6097 13.2170 -0.0012 0.2412 0.0000 0.2742
322 73 8.2621 14.8758 1.6515 0.2041 0.0000 0.2744
323 73 6.6087 13.2207 3.3042 0.2139 0.0000 0.2888
324 73 8.2634 14.8720 4.9562 0.2378 0.0000 0.2609
325 73 6.6092 13.2205 6.6105 0.2343 0.0000 0.2890
326 73 8.2640 14.8730 8.2610 0.2019 0.0000 0.2850
327 73 6.6084 13.2185 9.9156 0.2415 0.0000 0.2586
328 73 8.2655 14.8725 11.5675 0.1940 0.0000 0.2545
329 73 6.6115 13.2224 13.2204 0.2042 0.0000 0.2173
330 73 8.2616 14.8714 14.8742 0.1859 0.0000 0.2235
331 73 6.6098 13.2210 16.5243 0.1628 0.0000 0.2879
332 73 8.2627 14.8718 18.1768 0.2429 0.0000 0.2526
333 73 6.6098 13.2216 19.8294 0.1745 0.0000 0.2297
334 73 8.2623 14.8706 21.4825 0.1957 0.0000 0.2371
335 73 6.6066 13.2189 23.1338 0.1727 0.0000 0.2176
336 73 8.2647 14.8717 24.7890 0.1802 0.0000 0.2178
337 73 6.6113 16.5241 -0.0013 0.1863 0.0000 0.2394
338 73 8.2624 18.1776 1.6516 0.2017 0.0000 0.2205
339 73 6.6119 16.5236 3.3054 0.1764 0.0000 0.2429
340 73 8.2623 18.1801 4.9577 0.1701 0.0000 0.2416
341 73 6.6086 16.5271 6.6098 0.2403 0.0000 0.2268
342 73 8.2619 18.1773 8.2616 0.1972 0.0000 0.2851
343 73 6.6118 16.5245 9.9120 0.1887 0.0000 0.2151
344 73 8.2644 18.1780 11.5679 0.1688 0.0000 0.2263
345 73 6.6121 16.5256 13.2179 0.2265 0.0000 0.2777
346 73 8.2634 18.1773 14.8723 0.2142 0.0000 0.2887
347 73 6.6099 16.5252 16.5258 0.1849 0.0000 0.2531
348 73 8.2623 18.1788 18.1755 0.1869 0.0000 0.2555
349 73 6.6078 16.5224 19.8289 0.2213 0.0000 0.2430
350 73 8.2629 18.1778 21.4845 0.1754 0.0000 0.2295
351 73 6.6096 16.5249 23.1342 0.2027 0.0000 0.2735
352 73 8.2612 18.1792 24.7858 0.2146 0.0000 0.2537
353 73 6.6106 19.8318 0.0006 0.2318 0.0000 0.2838
354 73 8.2639 21.4793 1.6542 0.2054 0.0000 0.2530
355 73 6.6093 19.8312 3.3026 0.1668 0.0000 0.2450
356 73 8.2605 21.4815 4.9570 0.2071 0.0000 0.2887
357 73 6.6114 19.8293 6.6060 0.2107 0.0000 0.2617
358 73 8.2614 21.4828 8.2632 0.2278 0.0000 0.2402
359 73 6.6089 19.8284 9.9163 0.1813 0.0000 0.2764
360 73 8.2647 21.4827 11.5657 0.2419 0.0000 0.2481
361 73 6.6104 19.8307 13.2198 0.1922 0.0000 0.2626
362 73 8.2629 21.4809 14.8719 0.2134 0.0000 0.2497
363 73 6.6100 19.8295 16.5269 0.2334 0.0000 0.2199
364 73 8.2610 21.4805 18.1765 0.2189 0.0000 0.2819
365 73 6.6084 19.8277 19.8270 0.1700 0.0000 0.2637
366 73 8.2633 21.4835 21.4828 0.1881 0.0000 0.2381
367 73 6.6110 19.8329 23.1374 0.2382 0.0000 0.2761
368 73 8.2649 21.4841 24.7835 0.1909 0.0000 0.2850
369 73 6.6091 23.1359 0.0006 0.2151 0.0000 0.2848
370 73 8.2646 24.7870 1.6529 0.1790 0.0000 0.2752
371 73 6.6084 23.1362 3.3045 0.1752 0.0000 0.2456
372 73 8.2607 24.7889 4.9568 0.1638 0.0000 0.2863
373 73 6.6129 23.1338 6.6097 0.2211 0.0000 0.2363
374 73 8.2641 24.7879 8.2606 0.2272 0.0000 0.2450
375 73 6.6085 23.1368 9.9126 0.2133 0.0000 0.2366
376 73 8.2607 24.7876 11.5655 0.1643 0.0000 0.2877
377 73 6.6077 23.1364 13.2209 0.2223 0.0000 0.2498
378 73 8.2628 24.7870 14.8712 0.2292 0.0000 0.2603
379 73 6.6107 23.1338 16.5251 0.1648 0.0000 0.2304
380 73 8.2628 24.7885 18.1770 0.1987 0.0000 0.2596
381 73 6.6092 23.1360 19.8316 0.2030 0.0000 0.2189
382 73 8.2642 24.7884 21.4832 0.2337 0.0000 0.2205
383 73 6.6126 23.1384 23.1367 0.1859 0.0000 0.2200
384 73 8.2617 24.7872 24.7899 0.1726 0.0000 0.2340
385 73 9.9167 0.0020 0.0001 0.1743 0.0000 0.2376
386 73 11.5671 1.6534 1.6517 0.2047 0.0000 0.2563
387 73 9.9150 -0.0034 3.3044 0.2187 0.0000 0.2246
388 73 11.5667 1.6526 4.9569 0.2233 0.0000 0.2168
389 73 9.9161 -0.0005 6.6105 0.2066 0.0000 0.2670
390 73 11.5674 1.6545 8.2621 0.1940 0.0000 0.2244
391 73 9.9125 0.0020 9.9155 0.1894 0.0000 0.2513
392 73 11.5663 1.6529 11.5671 0.2116 0.0000 0.2178
393 73 9.9151 -0.0011 13.2210 0.1784 0.0000 0.2437
394 73 11.5684 1.6552 14.8769 0.1928 0.0000 0.2694
395 73 9.9158 0.0001 16.5244 0.2291 0.0000 0.2625
396 73 11.5688 1.6542 18.1773 0.1783 0.0000 0.2505
397 73 9.9151 0.0010 19.8320 0.1969 0.0000 0.2798
398 73 11.5671 1.6524 21.4825 0.2243 0.0000 0.2829
399 73 9.9154 0.0004 23.1369 0.2347 0.0000 0.2793
400 73 11.5668 1.6494 24.7875 0.2165 0.0000 0.2357
401 73 9.9171 3.3055 0.0007 0.2409 0.0000 0.2305
402 73 11.5675 4.9557 1.6505 0.2271 0.0000 0.2455
403 73 9.9164 3.3060 3.3054 0.2332 0.0000 0.2330
404 73 11.5688 4.9562 4.9574 0.2238 0.0000 0.2726
405 73 9.9150 3.3062 6.6093 0.2263 0.0000 0.2301
406 73 11.5684 4.9568 8.2640 0.1821 0.0000 0.2525
407 73 9.9160 3.3066 9.9149 0.1862 0.0000 0.2756
408 73 11.5676 4.9581 11.5659 0.2398 0.0000 0.2857
409 73 9.9112 3.3040 13.2198 0.1750 0.0000 0.2771
410 73 11.5693 4.9562 14.8736 0.2290 0.0000 0.2729
411 73 9.9163 3.3045 16.5251 0.2041 0.0000 0.2571
412 73 11.5665 4.9568 18.1780 0.1987 0.0000 0.2759
413 73 9.9157 3.3039 19.8312 0.2208 0.0000 0.2566
414 73 11.5692 4.9565 21.4816 0.2073 0.0000 0.2739
415 73 9.9125 3.3039 23.1366 0.1842 0.0000 0.2643
416 73 11.5676 4.9593 24.7852 0.1805 0.0000 0.2738
417 73 9.9153 6.6097 0.0011 0.2118 0.0000 0.2727
418 73 11.5692 8.2617 1.6520 0.2107 0.0000 0.2799
419 73 9.9145 6.6094 3.3081 0.2153 0.0000 0.2315
420 73 11.5694 8.2643 4.9563 0.2296 0.0000 0.2847
421 73 9.9166 6.6110 6.6090 0.2255 0.0000 0.2887
422 73 11.5683 8.2620 8.2614 0.2028 0.0000 0.2259
423 73 9.9155 6.6079 9.9123 0.1851 0.0000 0.2423
424 73 11.5683 8.2616 11.5660 0.2067 0.0000 0.2752
425 73 9.9139 6.6099 13.2202 0.2039 0.0000 0.2843
426 73 11.5672 8.2620 14.8719 0.2013 0.0000 0.2674
427 73 9.9161 6.6108 16.5258 0.1642 0.0000 0.2196
428 73 11.5694 8.2645 18.1781 0.1622 0.0000 0.2660
429 73 9.9144 6.6103 19.8305 0.2412 0.0000 0.2576
430 73 11.5668 8.2611 21.4836 0.1998 0.0000 0.2564
431 73 9.9152 6.6083 23.1370 0.2328 0.0000 0.2545
432 73 11.5673 8.2628 24.7861 0.2045 0.0000 0.2398
433 73 9.9129 9.9124 -0.0013 0.2322 0.0000 0.2420
434 73 11.5668 11.5662 1.6503 0.2101 0.0000 0.2678
435 73 9.9154 9.9155 3.3060 0.1634 0.0000 0.2724
436 73 11.5683 11.5672 4.9562 0.2257 0.0000 0.2343
437 73 9.9144 9.9143 6.6086 0.2347 0.0000 0.2692
438 73 11.5711 11.5656 8.2614 0.2399 0.0000 0.2310
439 73 9.9128 9.9148 9.9147 0.1898 0.0000 0.2354
440 73 11.5675 11.5654 11.5670 0.2251 0.0000 0.2333
441 73 9.9148 9.9150 13.2184 0.2124 0.0000 0.2264
442 73 11.5676 11.5695 14.8709 0.2057 0.0000 0.2250
443 73 9.9149 9.9127 16.5263 0.2109 0.0000 0.2195
444 73 11.5681 11.5700 18.1792 0.1688 0.0000 0.2828
445 73 9.9163 9.9161 19.8297 0.2238 0.0000 0.2363
446 73 11.5649 11.5655 21.4799 0.1832 0.0000 0.2690
447 73 9.9148 9.9157 23.1350 0.2316 0.0000 0.2241
448 73 11.5668 11.5692 24.7882 0.1998 0.0000 0.2725
449 73 9.9148 13.2178 0.0006 0.1891 0.0000 0.2447
450 73 11.5686 14.8768 1.6525 0.2214 0.0000 0.2569
451 73 9.9130 13.2198 3.3059 0.2117 0.0000 0.2430
452 73 11.5662 14.8723 4.9545 0.2296 0.0000 0.2484
453 73 9.9140 13.2197 6.6105 0.1734 0.0000 0.2513
454 73 11.5680 14.8723 8.2618 0.1769 0.0000 0.2372
455 73 9.9171 13.2229 9.9136 0.2377 0.0000 0.2535
456 73 11.5685 14.8722 11.5661 0.2140 0.0000 0.2256
457 73 9.9153 13.2194 13.2209 0.1902 0.0000 0.2178
458 73 11.5683 14.8724 14.8715 0.2135 0.0000 0.2619
459 73 9.9151 13.2199 16.5244 0.2080 0.0000 0.2518
460 73 11.5673 14.8742 18.1769 0.1656 0.0000 0.2570
461 73 9.9151 13.2198 19.8297 0.2071 0.0000 0.2659
462 73 11.5687 14.8729 21.4802 0.2328 0.0000 0.2483
463 73 9.9142 13.2195 23.1368 0.2252 0.0000 0.2699
464 73 11.5662 14.8731 24.7863 0.1771 0.0000 0.2621
465 73 9.9144 16.5247 0.0002 0.2314 0.0000 0.2354
466 73 11.5672 18.1779 1.6533 0.2286 0.0000 0.2154
467 73 9.9139 16.5257 3.3057 0.2001 0.0000 0.2394
468 73 11.5678 18.1738 4.9549 0.1644 0.0000 0.2737
469 73 9.9149 16.5259 6.6096 0.2186 0.0000 0.2424
470 73 11.5700 18.1767 8.2630 0.1799 0.0000 0.2438
471 73 9.9156 16.5241 9.9150 0.1866 0.0000 0.2587
472 73 11.5688 18.1757 11.5653 0.1859 0.0000 0.2315
473 73 9.9136 16.5260 13.2209 0.1848 0.0000 0.2217
474 73 11.5663 18.1766 14.8726 0.1696 0.0000 0.2757
475 73 9.9147 16.5258 16.5251 0.1888 0.0000 0.2248
476 73 11.5662 18.1797 18.1783 0.2210 0.0000 0.2403
477 73 9.9161 16.5239 19.8297 0.1717 0.0000 0.2756
478 73 11.5667 18.1770 21.4823 0.1934 0.0000 0.2302
479 73 9.9139 16.5243 23.1342 0.2305 0.0000 0.2633
480 73 11.5683 18.1775 24.7881 0.2256 0.0000 0.2858
481 73 9.9124 19.8307 0.0006 0.1677 0.0000 0.2405
482 73 11.5673 21.4823 1.6520 0.2235 0.0000 0.2811
483 73 9.9177 19.8305 3.3043 0.1875 0.0000 0.2296
484 73 11.5671 21.4815 4.9580 0.2327 0.0000 0.2219
485 73 9.9152 19.8308 6.6104 0.1982 0.0000 0.2215
486 73 11.5644 21.4806 8.2617 0.1704 0.0000 0.2513
487 73 9.9148 19.8301 9.9113 0.1853 0.0000 0.2776
488 73 11.5679 21.4831 11.5656 0.1743 0.0000 0.2694
489 73 9.9157 19.8312 13.2175 0.1963 0.0000 0.2354
490 73 11.5687 21.4821 14.8713 0.2167 0.0000 0.2156
491 73 9.9163 19.8299 16.5245 0.1915 0.0000 0.2758
492 73 11.5684 21.4843 18.1757 0.2374 0.0000 0.2519
493 73 9.9143 19.8310 19.8314 0.1799 0.0000 0.2619
494 73 11.5674 21.4821 21.4821 0.1792 0.0000 0.2665
495 73 9.9168 19.8315 23.1348 0.2171 0.0000 0.2891
496 73 11.5651 21.4834 24.7871 0.1929 0.0000 0.2688
497 73 9.9152 23.1343 -0.0023 0.1960 0.0000 0.2304
498 73 11.5663 24.7874 1.6514 0.1807 0.0000 0.2373
499 73 9.9153 23.1353 3.3050 0.1956 0.0000 0.2597
500 73 11.5700 24.7874 4.9575 0.2242 0.0000 0.2792
501 73 9.9142 23.1348 6.6109 0.2069 0.0000 0.2293
502 73 11.5701 24.7876 8.2625 0.2266 0.0000 0.2873
503 73 9.9123 23.1359 9.9151 0.2311 0.0000 0.2833
504 73 11.5674 24.7880 11.5651 0.2073 0.0000 0.2801
505 73 9.9138 23.1367 13.2167 0.1979 0.0000 0.2535
506 73 11.5667 24.7866 14.8702 0.1663 0.0000 0.2277
507 73 9.9139 23.1333 16.5230 0.2295 0.0000 0.2851
508 73 11.5662 24.7882 18.1761 0.1775 0.0000 0.2894
509 73 9.9162 23.1317 19.8326 0.1952 0.0000 0.2211
510 73 11.5658 24.7890 21.4800 0.1667 0.0000 0.2689
511 73 9.9140 23.1337 23.1338 0.1712 0.0000 0.2476
512 73 11.5659 24.7871 24.7850 0.2156 0.0000 0.2358
513 73 13.2212 -0.0021 -0.0001 0.2057 0.0000 0.2245
514 73 14.8710 1.6517 1.6521 0.2308 0.0000 0.2339
515 73 13.2198 -0.0005 3.3041 0.2292 0.0000 0.2406
516 73 14.8724 1.6535 4.9555 0.2094 0.0000 0.2416
517 73 13.2198 -0.0015 6.6110 0.1780 0.0000 0.2444
518 73 14.8735 1.6519 8.2612 0.2259 0.0000 0.2669
519 73 13.2211 0.0020 9.9118 0.1648 0.0000 0.2333
520 73 14.8728 1.6528 11.5674 0.1786 0.0000 0.2892
521 73 13.2180 -0.0009 13.2221 0.2402 0.0000 0.2299
522 73 14.8761 1.6546 14.8690 0.2083 0.0000 0.2723
523 73 13.2180 -0.0024 16.5233 0.2138 0.0000 0.2817
524 73 14.8719 1.6530 18.1767 0.2284 0.0000 0.2142
525 73 13.2184 -0.0012 19.8296 0.2272 0.0000 0.2890
526 73 14.8714 1.6517 21.4796 0.1762 0.0000 0.2870
527 73 13.2200 -0.0006 23.1343 0.1838 0.0000 0.2245
528 73 14.8717 1.6510 24.7856 0.2251 0.0000 0.2824
529 73 13.2185 3.3060 -0.0003 0.2007 0.0000 0.2451
530 73 14.8717 4.9568 1.6538 0.1845 0.0000 0.2513
531 73 13.2192 3.3053 3.3038 0.1814 0.0000 0.2396
532 73 14.8737 4.9586 4.9553 0.1991 0.0000 0.2356
533 73 13.2211 3.3054 6.6105 0.2211 0.0000 0.2319
534 73 14.8696 4.9561 8.2593 0.2295 0.0000 0.2224
535 73 13.2187 3.3057 9.9143 0.2246 0.0000 0.2317
536 73 14.8725 4.9574 11.5673 0.1775 0.0000 0.2445
537 73 13.2185 3.3056 13.2209 0.2298 0.0000 0.2188
538 73 14.8733 4.9593 14.8709 0.1704 0.0000 0.2448
539 73 13.2194 3.3043 16.5260 0.2021 0.0000 0.2806
540 73 14.8715 4.9590 18.1759 0.2392 0.0000 0.2789
541 73 13.2198 3.3029 19.8303 0.1971 0.0000 0.2276
542 73 14.8727 4.9582 21.4840 0.1847 0.0000 0.2374
543 73 13.2180 3.3051 23.1353 0.1936 0.0000 0.2338
544 73 14.8718 4.9593 24.7870 0.1879 0.0000 0.2652
545 73 13.2183 6.6098 -0.0011 0.1769 0.0000 0.2748
546 73 14.8720 8.2622 1.6542 0.2119 0.0000 0.2564
547 73 13.2180 6.6106 3.3051 0.2215 0.0000 0.2369
548 73 14.8707 8.2628 4.9583 0.2406 0.0000 0.2838
549 73 13.2192 6.6114 6.6102 0.2070 0.0000 0.2559
550 73 14.8706 8.2637 8.2626 0.1643 0.0000 0.2518
551 73 13.2214 6.6093 9.9162 0.1997 0.0000 0.2679
552 73 14.8737 8.2639 11.5687 0.2098 0.0000 0.2424
553 73 13.2196 6.6090 13.2215 0.2039 0.0000 0.2757
554 73 14.8712 8.2613 14.8708 0.1891 0.0000 0.2709
555 73 13.2188 6.6134 16.5252 0.2375 0.0000 0.2558
556 73 14.8709 8.2636 18.1763 0.1668 0.0000 0.2613
557 73 13.2198 6.6083 19.8309 0.2249 0.0000 0.2383
558 73 14.8710 8.2618 21.4821 0.2109 0.0000 0.2673
559 73 13.2203 6.6091 23.1353 0.1855 0.0000 0.2692
560 73 14.8712 8.2637 24.7859 0.1973 0.0000 0.2413
561 73 13.2184 9.9152 0.0009 0.2006 0.0000 0.2639
562 73 14.8714 11.5669 1.6541 0.1935 0.0000 0.2595
563 73 13.2195 9.9160 3.3057 0.1646 0.0000 0.2284
564 73 14.8731 11.5686 4.9544 0.2101 0.0000 0.2860
565 73 13.2221 9.9146 6.6104 0.1753 0.0000 0.2240
566 73 14.8721 11.5680 8.2638 0.1740 0.0000 0.2859
567 73 13.2196 9.9136 9.9148 0.2242 0.0000 0.2167
568 73 14.8725 11.5678 11.5672 0.2028 0.0000 0.2538
569 73 13.2201 9.9161 13.2199 0.1786 0.0000 0.2291
570 73 14.8709 11.5673 14.8718 0.2384 0.0000 0.2812
571 73 13.2197 9.9142 16.5234 0.1908 0.0000 0.2161
572 73 14.8727 11.5677 18.1789 0.2145 0.0000 0.2805
573 73 13.2220 9.9154 19.8281 0.1753 0.0000 0.2597
574 73 14.8738 11.5680 21.4812 0.2329 0.0000 0.2791
575 73 13.2196 9.9150 23.1355 0.1837 0.0000 0.2533
576 73 14.8721 11.5673 24.7893 0.1824 0.0000 0.2766
577 73 13.2209 13.2211 -0.0026 0.2134 0.0000 0.2522
578 73 14.8719 14.8726 1.6532 0.2011 0.0000 0.2477
579 73 13.2194 13.2197 3.3049 0.1793 0.0000 0.2379
580 73 14.8708 14.8718 4.9589 0.2151 0.0000 0.2570
581 73 13.2202 13.2201 6.6101 0.2408 0.0000 0.2202
582 73 14.8728 14.8731 8.2607 0.1848 0.0000 0.2264
583 73 13.2201 13.2211 9.9147 0.2059 0.0000 0.2626
584 73 14.8725 14.8701 11.5681 0.1914 0.0000 0.2701
585 73 13.2231 13.2184 13.2195 0.2416 0.0000 0.2496
586 73 14.8703 14.8699 14.8740 0.1870 0.0000 0.2454
587 73 13.2212 13.2192 16.5229 0.1791 0.0000 0.2800
588 73 14.8717 14.8711 18.1784 0.1646 0.0000 0.2340
589 73 13.2210 13.2201 19.8301 0.2238 0.0000 0.2789
590 73 14.8732 14.8706 21.4820 0.2391 0.0000 0.2727
591 73 13.2198 13.2183 23.1350 0.1975 0.0000 0.2722
592 73 14.8738 14.8706 24.7898 0.1967 0.0000 0.2297
593 73 13.2190 16.5248 -0.0032 0.2208 0.0000 0.2727