ITEM: TIMESTEP
0
ITEM: NUMBER OF ATOMS
864
ITEM: BOX BOUNDS pp pp pp
0.0 21.1200
0.0 21.1200
0.0 21.1200
ITEM: ATOMS id type x y z error strain stiffness
1 28 0.0240 0.0332 0.0429 5.8876 0.0000 6.5477
2 28 1.7553 1.7315 0.0343 5.1155 0.0000 6.5040
3 28 1.7595 0.0601 1.7150 5.2143 0.0000 6.9368
4 28 -0.0588 1.7513 1.6596 4.5097 0.0000 6.1876
5 28 0.0026 -0.0245 3.5281 5.3778 0.0000 7.1572
6 28 1.7718 1.7600 3.5040 5.0235 0.0000 6.1739
7 28 1.7392 -0.0526 5.2711 4.7993 0.0000 7.1174
8 28 -0.0149 1.7449 5.2939 4.7825 0.0000 5.9844
9 28 0.0606 -0.0209 7.0204 5.6694 0.0000 6.9744
10 28 1.7296 1.7535 7.0223 4.0278 0.0000 6.3026
11 28 1.7753 -0.0091 8.8040 4.2473 0.0000 6.7852
12 28 0.0275 1.7939 8.8214 5.3714 0.0000 6.8772
13 28 0.0190 -0.0440 10.5791 5.0801 0.0000 6.3227
14 28 1.7465 1.7225 10.5983 5.8940 0.0000 7.2287
15 28 1.7172 0.0615 12.3082 4.3234 0.0000 6.0676
16 28 0.0810 1.7377 12.3450 5.4045 0.0000 6.7189
17 28 -0.0151 -0.0119 14.1161 5.0739 0.0000 6.2666
18 28 1.8071 1.6854 14.0132 5.6857 0.0000 6.6616
19 28 1.7099 -0.0529 15.8592 5.5388 0.0000 6.1069
20 28 -0.0292 1.7680 15.8523 4.0266 0.0000 5.5887
21 28 -0.0134 0.0046 17.5675 5.4335 0.0000 7.1136
22 28 1.7275 1.7531 17.5936 5.3104 0.0000 6.2551
23 28 1.7643 -0.0446 19.3935 4.9282 0.0000 6.6230
24 28 -0.0136 1.7698 19.3864 4.0360 0.0000 6.1838
25 28 0.0214 3.5546 0.0365 4.4640 0.0000 6.3300
26 28 1.7767 5.2404 0.0617 4.9571 0.0000 6.1895
27 28 1.7674 3.4957 1.7969 4.1372 0.0000 7.1328
28 28 0.0071 5.2466 1.7235 5.8228 0.0000 5.5703
29 28 0.0074 3.5515 3.4494 5.3872 0.0000 5.7498
30 28 1.7849 5.3666 3.4855 4.3300 0.0000 6.1072
31 28 1.7443 3.4890 5.2627 5.0533 0.0000 6.3465
32 28 0.0140 5.2389 5.2585 5.3760 0.0000 5.8501
33 28 -0.0479 3.5047 7.0321 4.8502 0.0000 7.2988
34 28 1.7561 5.3224 7.0605 4.5991 0.0000 6.4163
35 28 1.8274 3.5100 8.8033 4.7861 0.0000 6.5699
36 28 -0.0216 5.3164 8.8369 5.8345 0.0000 6.5923
37 28 0.0062 3.5300 10.5308 5.8944 0.0000 5.6925
38 28 1.7408 5.2245 10.5315 5.7618 0.0000 5.7985
39 28 1.7126 3.5839 12.3355 5.5658 0.0000 6.1314
40 28 0.0270 5.2763 12.2927 5.9921 0.0000 5.7397
41 28 -0.0470 3.5070 14.0571 4.3519 0.0000 6.0385
42 28 1.7239 5.2354 14.1269 4.3241 0.0000 6.2980
43 28 1.7583 3.5406 15.8185 4.8700 0.0000 6.8490
44 28 -0.0716 5.2461 15.8440 5.0416 0.0000 5.9270
45 28 -0.0070 3.5050 17.5922 5.6328 0.0000 6.2858
46 28 1.8117 5.2979 17.6623 5.7903 0.0000 5.8190
47 28 1.7555 3.5534 19.3325 5.6495 0.0000 6.2872
48 28 0.0426 5.3195 19.4091 5.8017 0.0000 6.9945
49 28 0.0301 7.0317 0.0096 5.3045 0.0000 5.8138
50 28 1.7135 8.7850 0.0601 5.0878 0.0000 6.2570
51 28 1.8044 7.0478 1.8281 4.3430 0.0000 5.7068
52 28 -0.0691 8.7871 1.7954 4.7217 0.0000 6.3672
53 28 -0.0039 6.9877 3.5516 4.1600 0.0000 6.1359
54 28 1.7461 8.8381 3.5296 4.9067 0.0000 5.5348
55 28 1.7645 7.0335 5.3028 4.0650 0.0000 7.1998
56 28 -0.0313 8.7579 5.2428 4.5486 0.0000 6.5553
57 28 0.0069 6.9770 7.0097 4.3616 0.0000 6.7755
58 28 1.7320 8.8195 7.1355 5.8633 0.0000 6.3348
59 28 1.7410 7.0365 8.7900 5.3946 0.0000 6.3790
60 28 -0.0097 8.7922 8.8314 4.2459 0.0000 7.0882
61 28 0.0403 7.0103 10.5825 4.8465 0.0000 5.7092
62 28 1.6951 8.8362 10.5285 4.2406 0.0000 6.1134
63 28 1.7679 7.0023 12.2981 4.9994 0.0000 5.4743
64 28 -0.0558 8.8113 12.3618 4.5224 0.0000 6.3716
65 28 0.0281 7.0155 14.0456 4.0461 0.0000 5.9554
66 28 1.7487 8.7620 14.0635 4.1248 0.0000 6.0316
67 28 1.7689 7.0405 15.8271 5.9665 0.0000 7.2219
68 28 -0.0382 8.7878 15.8288 4.7096 0.0000 7.1946
69 28 -0.0432 7.0547 17.6091 5.3185 0.0000 6.2164
70 28 1.7491 8.7955 17.5136 4.8765 0.0000 5.8779
71 28 1.7083 7.0236 19.3663 4.5750 0.0000 5.8133
72 28 -0.0139 8.7525 19.3949 5.7122 0.0000 7.2474
73 28 -0.0010 10.5594 -0.0314 5.4077 0.0000 6.3650
74 28 1.7622 12.2710 -0.0418 5.4382 0.0000 7.2746
75 28 1.7386 10.5093 1.7312 4.1048 0.0000 5.7897
76 28 -0.0125 12.3879 1.7794 5.6752 0.0000 6.9148
77 28 -0.0248 10.5723 3.4866 4.2975 0.0000 7.1146
78 28 1.7635 12.3421 3.5043 4.7255 0.0000 7.1311
79 28 1.8011 10.5649 5.3416 4.9695 0.0000 7.2151
80 28 0.0397 12.3434 5.2448 5.5392 0.0000 6.8789
81 28 0.0165 10.6198 7.0537 6.0066 0.0000 6.7286
82 28 1.7556 12.3355 6.9946 5.0034 0.0000 6.5548
83 28 1.7289 10.6103 8.7791 4.0370 0.0000 6.9621
84 28 -0.0365 12.3481 8.7885 5.3406 0.0000 6.3962
85 28 -0.0478 10.5089 10.5579 4.1924 0.0000 5.6156
86 28 1.7756 12.3392 10.5320 5.3719 0.0000 6.8603
87 28 1.7721 10.5613 12.3054 5.8627 0.0000 6.5073
88 28 -0.0887 12.2641 12.3027 4.9055 0.0000 6.8639
89 28 -0.0007 10.5547 14.0710 5.8428 0.0000 6.1281
90 28 1.7581 12.3393 14.0398 4.9984 0.0000 6.0629
91 28 1.7455 10.5286 15.7685 4.3761 0.0000 7.2239
92 28 -0.0163 12.3196 15.8773 4.1936 0.0000 7.1086
93 28 0.0248 10.5688 17.5695 4.4150 0.0000 6.8980
94 28 1.7283 12.2731 17.6090 4.2539 0.0000 5.7991
95 28 1.7904 10.6060 19.3515 5.5609 0.0000 6.2429
96 28 0.0472 12.2930 19.3593 5.0593 0.0000 5.7483
97 28 0.0439 14.1162 -0.0357 5.4766 0.0000 7.3175
98 28 1.8431 15.8513 -0.0397 4.7998 0.0000 5.5046
99 28 1.7147 14.0896 1.7497 5.5423 0.0000 7.2830
100 28 -0.0083 15.8336 1.7440 5.9121 0.0000 6.9412
101 28 -0.0076 14.0763 3.5105 5.5305 0.0000 7.1431
102 28 1.7369 15.8776 3.5783 4.4804 0.0000 6.3345
103 28 1.7649 14.0516 5.2326 5.1202 0.0000 6.0049
104 28 0.0027 15.8086 5.2774 5.7390 0.0000 5.6256
105 28 -0.0398 14.1309 7.0036 5.5441 0.0000 6.8894
106 28 1.7637 15.8506 7.0813 4.1514 0.0000 6.7844
107 28 1.7994 14.1112 8.8258 5.9620 0.0000 7.3589
108 28 0.0748 15.8351 8.7820 4.0755 0.0000 6.5515
109 28 0.0214 14.1513 10.5346 4.8198 0.0000 6.4001
110 28 1.7847 15.8144 10.5714 5.2416 0.0000 6.8546
111 28 1.7615 14.1290 12.3529 4.1492 0.0000 6.0699
112 28 -0.0098 15.8382 12.3539 4.7368 0.0000 6.2974
113 28 -0.0041 14.0940 14.0157 4.6913 0.0000 6.2197
114 28 1.7976 15.8417 14.0426 4.0212 0.0000 6.7877
115 28 1.7044 14.0744 15.8462 5.1521 0.0000 6.8901
116 28 -0.0393 15.8780 15.8100 5.0826 0.0000 6.9940
117 28 0.0308 14.1391 17.6391 4.3991 0.0000 6.7173
118 28 1.7922 15.8334 17.5718 4.2030 0.0000 6.1289
119 28 1.7412 14.0490 19.3323 4.4747 0.0000 6.7694
120 28 -0.0514 15.8257 19.3693 4.6310 0.0000 6.7464
121 28 -0.0006 17.6308 0.0233 4.8833 0.0000 6.9928
122 28 1.7156 19.3671 0.0285 4.8468 0.0000 5.4831
123 28 1.7854 17.5916 1.7588 4.0470 0.0000 7.2825
124 28 -0.0356 19.3764 1.7057 4.3346 0.0000 7.2338
125 28 0.0516 17.6047 3.5076 4.9159 0.0000 6.1782
126 28 1.8185 19.3544 3.4852 4.5264 0.0000 6.6939
127 28 1.8026 17.6384 5.2913 4.4426 0.0000 6.1978
128 28 0.0280 19.3744 5.3029 4.1018 0.0000 6.9740
129 28 -0.0216 17.5671 7.1002 5.5905 0.0000 5.5572
130 28 1.7285 19.3500 7.0965 5.3602 0.0000 6.3824
131 28 1.8084 17.5652 8.8278 6.0083 0.0000 6.3820
132 28 0.0090 19.3617 8.8363 4.7190 0.0000 7.0500
133 28 0.0221 17.5894 10.5739 4.5482 0.0000 6.1433
134 28 1.7139 19.3252 10.5970 4.0295 0.0000 5.5728
135 28 1.7900 17.5602 12.3762 4.6657 0.0000 6.5078
136 28 -0.0301 19.3544 12.2930 5.0831 0.0000 6.8939
137 28 0.0167 17.5692 14.0688 4.0265 0.0000 6.4569
138 28 1.7421 19.4043 14.1395 4.1942 0.0000 7.2222
139 28 1.7507 17.5891 15.8998 5.0631 0.0000 6.2482
140 28 0.0739 19.3536 15.8475 5.6490 0.0000 5.6144
141 28 -0.0431 17.5723 17.5591 4.6779 0.0000 6.1064
142 28 1.8081 19.3618 17.5804 4.8429 0.0000 6.5069
143 28 1.8056 17.5439 19.3683 4.8412 0.0000 7.2581
144 28 -0.0042 19.3458 19.3441 4.7472 0.0000 6.8234
145 28 3.4998 -0.0004 0.0690 5.7666 0.0000 6.9360
146 28 5.2762 1.8294 -0.0325 4.3258 0.0000 5.8519
147 28 5.2572 -0.0163 1.7784 5.2484 0.0000 6.0911
148 28 3.5272 1.7544 1.7175 4.0408 0.0000 6.3503
149 28 3.4678 -0.0273 3.5461 5.8175 0.0000 5.8233
150 28 5.3208 1.7319 3.5228 5.2983 0.0000 6.9822
151 28 5.2322 0.0544 5.2735 5.4939 0.0000 7.3134
152 28 3.4505 1.6780 5.2402 4.9870 0.0000 6.3775
153 28 3.5068 -0.0221 7.0957 4.3438 0.0000 5.8892
154 28 5.2789 1.7684 7.0210 5.8929 0.0000 5.6205
155 28 5.2708 0.0781 8.8112 5.3441 0.0000 5.9168
156 28 3.5263 1.7703 8.7524 5.7896 0.0000 5.8887
157 28 3.5460 -0.0416 10.5688 4.4573 0.0000 6.7675
158 28 5.2867 1.8092 10.4909 4.4630 0.0000 6.1442
159 28 5.2947 0.0333 12.3050 4.1052 0.0000 6.2169
160 28 3.5585 1.7764 12.3121 6.0016 0.0000 7.2321
161 28 3.5032 0.0158 14.0588 4.3166 0.0000 7.0781
162 28 5.3044 1.8209 14.0845 4.4099 0.0000 6.1594
163 28 5.2475 0.0241 15.8495 5.9023 0.0000 5.4913
164 28 3.4802 1.7728 15.8443 4.3392 0.0000 6.8599
165 28 3.5436 0.0715 17.5580 4.8714 0.0000 6.6822
166 28 5.2765 1.7732 17.6432 5.2826 0.0000 6.4059
167 28 5.2938 0.0323 19.3890 4.6433 0.0000 5.8154
168 28 3.5335 1.7651 19.3386 5.1308 0.0000 5.5680
169 28 3.5442 3.4881 -0.0150 6.0259 0.0000 6.8345
170 28 5.2739 5.2923 0.0143 4.6041 0.0000 5.8277
171 28 5.2652 3.5412 1.7865 5.6231 0.0000 7.0506
172 28 3.4754 5.3159 1.7262 5.3454 0.0000 5.7012
173 28 3.5161 3.5015 3.5884 4.8408 0.0000 7.3469
174 28 5.2864 5.2909 3.4417 5.9132 0.0000 6.7798
175 28 5.2911 3.5333 5.3530 5.4483 0.0000 6.8371
176 28 3.5053 5.3076 5.2717 5.7776 0.0000 6.9438
177 28 3.4124 3.4771 7.0169 4.9417 0.0000 5.5821
178 28 5.2717 5.2818 7.0115 5.2996 0.0000 5.4715
179 28 5.3522 3.4677 8.8348 4.2620 0.0000 6.9600
180 28 3.5219 5.2872 8.8099 5.6081 0.0000 6.3727
181 28 3.5161 3.5613 10.5559 4.9406 0.0000 5.5716
182 28 5.2824 5.3223 10.5573 4.4805 0.0000 7.3675
183 28 5.2698 3.5413 12.3399 5.9427 0.0000 5.7173
184 28 3.4699 5.2553 12.3005 5.7454 0.0000 6.4087
185 28 3.5529 3.5577 14.0495 4.0243 0.0000 7.3669
186 28 5.3109 5.2705 14.0625 5.5302 0.0000 6.7706
187 28 5.3296 3.5362 15.8460 5.3027 0.0000 5.6465
188 28 3.4856 5.2774 15.8419 4.4832 0.0000 7.0621
189 28 3.5037 3.5265 17.6421 5.7905 0.0000 6.1013
190 28 5.2116 5.3272 17.6221 5.2758 0.0000 5.8024
191 28 5.2971 3.5345 19.3775 4.9830 0.0000 6.5327
192 28 3.4929 5.2403 19.3798 5.1752 0.0000 7.2363
193 28 3.5065 7.0510 -0.0258 4.8937 0.0000 7.3393
194 28 5.3001 8.8073 -0.0305 5.4718 0.0000 6.5509
195 28 5.2882 7.0491 1.7628 5.4219 0.0000 6.3887
196 28 3.5347 8.7975 1.7881 5.2369 0.0000 5.5434
197 28 3.5361 7.0132 3.5239 5.7401 0.0000 6.0926
198 28 5.3212 8.7830 3.4855 4.9951 0.0000 6.7464
199 28 5.2664 7.0418 5.2677 5.6843 0.0000 6.5909
200 28 3.5179 8.8124 5.2969 5.1535 0.0000 6.2388
201 28 3.5418 7.1074 7.0703 4.3739 0.0000 6.1812
202 28 5.3155 8.7584 7.0258 5.6625 0.0000 6.5936
203 28 5.3415 7.0078 8.8233 5.3816 0.0000 7.2581
204 28 3.4558 8.8200 8.8427 4.3856 0.0000 5.4974
205 28 3.5078 7.0597 10.5798 4.0586 0.0000 5.9158
206 28 5.2291 8.8056 10.5812 4.5665 0.0000 7.2575
207 28 5.2527 6.9934 12.3765 4.5864 0.0000 7.1727
208 28 3.5311 8.7391 12.3007 5.0268 0.0000 5.7042
209 28 3.4904 7.0785 14.0620 5.4007 0.0000 6.1074
210 28 5.3453 8.7703 14.0454 4.7044 0.0000 7.0506
211 28 5.2828 6.9634 15.7772 4.8541 0.0000 6.7373
212 28 3.5367 8.8507 15.8652 6.0179 0.0000 6.6553
213 28 3.4910 7.0698 17.6476 4.5687 0.0000 6.6571
214 28 5.2922 8.8557 17.6436 4.5865 0.0000 5.8096
215 28 5.3270 7.0196 19.3541 5.3924 0.0000 5.4802
216 28 3.5054 8.9259 19.3505 5.0813 0.0000 7.3107
217 28 3.5369 10.5483 0.0164 4.1483 0.0000 7.3205
218 28 5.2356 12.2979 0.0104 5.5192 0.0000 7.0887
219 28 5.2830 10.5638 1.7472 4.1283 0.0000 6.0135
220 28 3.5101 12.3171 1.8289 5.2136 0.0000 6.8866
221 28 3.5372 10.5651 3.5433 4.0948 0.0000 7.2298
222 28 5.2883 12.3450 3.5156 5.1227 0.0000 6.9418
223 28 5.2970 10.5889 5.2829 5.0149 0.0000 5.6171
224 28 3.5510 12.3260 5.2428 4.6685 0.0000 6.4370
225 28 3.5193 10.5380 7.0510 4.7520 0.0000 5.7630
226 28 5.2666 12.3593 6.9919 4.9154 0.0000 6.6035
227 28 5.3153 10.5726 8.8120 5.0032 0.0000 6.9344
228 28 3.5064 12.3450 8.7871 5.5783 0.0000 6.9038
229 28 3.5510 10.5942 10.5927 4.9527 0.0000 6.4415
230 28 5.2936 12.3009 10.5892 4.5155 0.0000 5.5095
231 28 5.2620 10.5876 12.3479 4.6676 0.0000 5.5783
232 28 3.4890 12.2853 12.2398 5.8254 0.0000 6.5439
233 28 3.5325 10.5037 14.0108 4.3926 0.0000 6.9834
234 28 5.2757 12.3095 14.0555 5.2679 0.0000 5.8839
235 28 5.3136 10.5587 15.8530 4.1736 0.0000 5.9223
236 28 3.4778 12.3999 15.7945 4.4768 0.0000 6.4018
237 28 3.4745 10.5411 17.5530 5.8624 0.0000 5.5763
238 28 5.2743 12.3140 17.6393 5.0423 0.0000 6.9018
239 28 5.2815 10.5564 19.3825 5.2552 0.0000 6.2497
240 28 3.5510 12.3442 19.4076 5.5020 0.0000 7.1641
241 28 3.4778 14.0643 -0.0143 5.0093 0.0000 6.9813
242 28 5.1944 15.8122 0.0373 4.3112 0.0000 6.0623
243 28 5.2754 14.0730 1.7592 4.6333 0.0000 5.6856
244 28 3.5445 15.8052 1.7173 5.6040 0.0000 6.8466
245 28 3.5295 14.1219 3.5172 5.9009 0.0000 7.3089
246 28 5.3101 15.7996 3.5728 4.4642 0.0000 6.6077
247 28 5.2899 14.0572 5.2578 5.5919 0.0000 6.3312
248 28 3.5512 15.8008 5.2692 4.3980 0.0000 5.8488
249 28 3.5862 14.1433 7.0464 5.0935 0.0000 6.9391
250 28 5.3108 15.8642 7.0744 4.2671 0.0000 6.8557
251 28 5.3168 14.0633 8.7345 5.8444 0.0000 6.2916
252 28 3.5329 15.8651 8.7659 5.7784 0.0000 6.7603
253 28 3.4952 14.0667 10.5302 4.1858 0.0000 5.7750
254 28 5.2463 15.8459 10.5724 5.1573 0.0000 6.4587
255 28 5.2661 14.0487 12.3868 4.4656 0.0000 6.2396
256 28 3.5363 15.8686 12.3486 4.4753 0.0000 7.3212
257 28 3.5481 14.1306 14.0377 4.3891 0.0000 6.2550
258 28 5.2885 15.8183 14.1509 5.8652 0.0000 5.5566
259 28 5.2588 14.0991 15.8068 4.6079 0.0000 6.5115
260 28 3.5263 15.8670 15.8654 5.1239 0.0000 6.9592
261 28 3.5885 14.0387 17.6560 5.0305 0.0000 5.9844
262 28 5.2571 15.8581 17.5849 5.4753 0.0000 6.8548
263 28 5.2821 14.0867 19.3146 5.0610 0.0000 7.2321
264 28 3.5153 15.8256 19.3806 4.1859 0.0000 5.7716
265 28 3.5195 17.5994 0.0419 5.4760 0.0000 7.0304
266 28 5.2581 19.3441 -0.0159 4.5252 0.0000 7.2918
267 28 5.2567 17.6356 1.7994 5.1506 0.0000 7.3613
268 28 3.5444 19.3485 1.6844 5.9534 0.0000 5.9404
269 28 3.5571 17.5789 3.5148 5.5444 0.0000 5.8702
270 28 5.3116 19.2760 3.4576 4.8089 0.0000 7.2243
271 28 5.2938 17.6313 5.2579 4.5701 0.0000 6.2422
272 28 3.5066 19.3883 5.2689 4.8430 0.0000 5.8401
273 28 3.5149 17.6677 7.0613 5.4581 0.0000 6.0416
274 28 5.2571 19.3437 7.0463 5.3244 0.0000 6.9641
275 28 5.2901 17.5688 8.8410 4.9231 0.0000 7.0418
276 28 3.5644 19.3433 8.7271 4.2422 0.0000 7.1385
277 28 3.4731 17.6129 10.5378 5.2716 0.0000 7.1431
278 28 5.2853 19.3931 10.5414 4.6771 0.0000 5.6916
279 28 5.2079 17.6276 12.3915 4.8771 0.0000 6.0083
280 28 3.4447 19.3326 12.2975 4.8925 0.0000 5.8038
281 28 3.4306 17.5576 14.0324 4.4209 0.0000 6.0473
282 28 5.2476 19.3796 14.0595 4.3451 0.0000 5.8064
283 28 5.2558 17.6369 15.8966 4.4417 0.0000 5.5210
284 28 3.5510 19.3596 15.8040 5.3984 0.0000 7.1408
285 28 3.4878 17.6246 17.6843 5.9927 0.0000 6.8159
286 28 5.2536 19.3671 17.6315 4.0707 0.0000 6.4267
287 28 5.2289 17.6542 19.3157 5.3045 0.0000 6.8222
288 28 3.4994 19.3357 19.3747 4.3022 0.0000 7.1005
289 28 7.0073 0.0261 -0.0046 5.5238 0.0000 5.9094
290 28 8.7773 1.7640 0.0464 4.7835 0.0000 6.6736
291 28 8.8513 0.0045 1.6992 5.0069 0.0000 6.8184
292 28 7.0176 1.7504 1.7780 5.1792 0.0000 6.4440
293 28 6.9831 -0.0016 3.5422 5.8711 0.0000 6.9246
294 28 8.8022 1.8209 3.4381 5.9073 0.0000 7.2301
295 28 8.8423 0.0129 5.2881 4.0249 0.0000 6.0884
296 28 6.9872 1.7466 5.2658 4.2435 0.0000 6.6975
297 28 7.0334 -0.0269 7.0252 4.2696 0.0000 6.2876
298 28 8.8388 1.7440 6.9814 6.0288 0.0000 5.8232
299 28 8.8266 0.0025 8.8129 5.4364 0.0000 6.9144
300 28 7.0909 1.7469 8.7430 4.8922 0.0000 6.0141
301 28 7.0668 -0.0436 10.5615 5.5220 0.0000 7.0813
302 28 8.7541 1.7929 10.5962 4.4326 0.0000 5.6459
303 28 8.8042 0.0175 12.2387 5.0143 0.0000 6.4252
304 28 7.0639 1.7882 12.2991 4.1563 0.0000 6.8707
305 28 7.0324 -0.0512 14.0889 4.5509 0.0000 7.3333
306 28 8.8503 1.7243 14.0734 5.7691 0.0000 6.5779
307 28 8.7607 -0.0019 15.8582 5.0866 0.0000 6.3375
308 28 6.9998 1.7120 15.8006 5.9861 0.0000 6.0490
309 28 7.0686 -0.0520 17.5765 5.8661 0.0000 6.0958
310 28 8.7730 1.7616 17.5782 5.1990 0.0000 6.7995
311 28 8.8070 -0.0711 19.3568 4.0544 0.0000 5.9776
312 28 7.0044 1.7658 19.3196 4.1420 0.0000 7.1216
313 28 7.0302 3.5222 -0.0540 4.9624 0.0000 6.1317
314 28 8.7675 5.3078 -0.0508 5.0697 0.0000 5.5104
315 28 8.7640 3.5236 1.7690 5.5428 0.0000 5.8544
316 28 7.0306 5.3024 1.7690 4.5056 0.0000 6.1814
317 28 7.0524 3.5170 3.4802 4.3169 0.0000 6.6765
318 28 8.7879 5.3147 3.5175 4.1767 0.0000 5.6757
319 28 8.8162 3.5404 5.2577 5.2998 0.0000 5.5402
320 28 6.9290 5.2567 5.2714 5.9974 0.0000 6.2630
321 28 7.1075 3.4907 7.0572 5.5702 0.0000 6.4114
322 28 8.7901 5.2864 7.0470 5.0201 0.0000 5.6967
323 28 8.8472 3.5404 8.7675 5.1429 0.0000 7.3249
324 28 6.9731 5.3278 8.8006 4.6643 0.0000 6.8291
325 28 7.0487 3.4902 10.6326 5.0182 0.0000 6.5665
326 28 8.8708 5.2356 10.5622 5.8093 0.0000 5.8966
327 28 8.8048 3.6113 12.3026 5.6453 0.0000 5.8107
328 28 7.0009 5.2841 12.3640 4.0823 0.0000 6.4196
329 28 7.0042 3.5331 14.1175 4.4880 0.0000 7.0348
330 28 8.8132 5.3568 14.1080 4.5519 0.0000 6.1278
331 28 8.7846 3.4935 15.8495 5.7990 0.0000 6.7145
332 28 7.0133 5.2605 15.8574 4.4206 0.0000 6.1228
333 28 7.0533 3.5459 17.6239 4.9645 0.0000 6.2076
334 28 8.8211 5.1951 17.6102 5.8763 0.0000 5.8153
335 28 8.8476 3.5089 19.3678 5.6932 0.0000 7.1904
336 28 7.0508 5.3316 19.3847 5.7431 0.0000 6.5724
337 28 7.0536 7.0323 -0.0111 4.3835 0.0000 6.4784
338 28 8.8268 8.8841 0.0480 4.8955 0.0000 6.3738
339 28 8.8164 6.9838 1.6896 5.2597 0.0000 6.6516
340 28 7.0148 8.8026 1.7858 5.8826 0.0000 7.1408
341 28 7.0761 7.0051 3.4918 5.5699 0.0000 5.9961
342 28 8.8242 8.7757 3.5042 4.9952 0.0000 6.5744
343 28 8.7823 7.0063 5.2448 4.3997 0.0000 6.1213
344 28 7.0496 8.8241 5.3717 5.9861 0.0000 6.2349
345 28 7.0778 7.0744 7.0294 4.5875 0.0000 6.5977
346 28 8.8272 8.7801 7.1319 4.7184 0.0000 5.6175
347 28 8.7294 7.0625 8.7882 4.9011 0.0000 5.8006
348 28 7.0791 8.7719 8.8092 5.2567 0.0000 5.6147
349 28 7.0643 6.9811 10.4770 5.9060 0.0000 7.1204
350 28 8.7994 8.8679 10.5127 5.2257 0.0000 6.5385
351 28 8.7779 6.9625 12.3262 4.3377 0.0000 5.8754
352 28 7.0619 8.8885 12.3083 4.9625 0.0000 6.6702
353 28 7.0172 6.9952 14.0424 4.8468 0.0000 5.6815
354 28 8.8521 8.8128 14.1108 5.2237 0.0000 6.8863
355 28 8.8142 7.0469 15.8747 4.6662 0.0000 6.7384
356 28 7.0211 8.7968 15.8125 5.8290 0.0000 6.0657
357 28 7.0609 7.0300 17.6353 4.3285 0.0000 5.6449
358 28 8.7876 8.8179 17.5798 4.0996 0.0000 6.3107
359 28 8.7700 7.0759 19.3328 4.6026 0.0000 5.8563
360 28 7.0606 8.8024 19.4019 5.1202 0.0000 5.9645
361 28 7.0086 10.5051 -0.0165 5.8077 0.0000 7.3478
362 28 8.7890 12.2545 0.0333 5.2811 0.0000 6.6430
363 28 8.8321 10.5440 1.7921 5.1408 0.0000 7.1784
364 28 7.1182 12.3282 1.7924 4.1093 0.0000 5.7836
365 28 7.0455 10.5358 3.4928 4.4281 0.0000 6.9728
366 28 8.8142 12.3304 3.4488 5.9718 0.0000 6.0216
367 28 8.8545 10.5610 5.2509 4.8502 0.0000 6.6871
368 28 7.0624 12.3076 5.2522 4.7931 0.0000 5.8091
369 28 7.0296 10.5489 7.0129 5.2051 0.0000 7.3680
370 28 8.8255 12.3378 7.0739 4.9802 0.0000 6.6827
371 28 8.7262 10.5880 8.8123 4.1916 0.0000 6.4951
372 28 7.0112 12.3236 8.8420 5.1657 0.0000 6.9720
373 28 7.0394 10.6191 10.5832 5.2795 0.0000 6.3840
374 28 8.8040 12.3126 10.5648 5.9936 0.0000 6.6639
375 28 8.7642 10.5737 12.3664 4.5764 0.0000 5.7812
376 28 7.0032 12.3680 12.2930 4.3400 0.0000 7.0426
377 28 7.0335 10.5382 14.1017 5.5833 0.0000 5.8793
378 28 8.7551 12.2972 14.0354 5.2811 0.0000 6.0374
379 28 8.8079 10.6149 15.8304 4.9813 0.0000 7.0525
380 28 7.0583 12.2954 15.8278 4.2260 0.0000 6.6089
381 28 7.0594 10.5590 17.6068 4.0227 0.0000 6.2654
382 28 8.8544 12.3340 17.5273 4.7807 0.0000 5.9505
383 28 8.8165 10.5253 19.3446 4.1102 0.0000 7.3447
384 28 7.1055 12.3285 19.3643 4.3995 0.0000 5.8512
385 28 7.0942 14.0834 0.0550 4.4817 0.0000 5.6318
386 28 8.7515 15.8911 -0.0059 5.8638 0.0000 5.5802
387 28 8.7848 14.0464 1.7472 5.0856 0.0000 6.4624
388 28 7.1099 15.8446 1.7341 4.6808 0.0000 6.6498
389 28 7.0953 14.0653 3.5133 5.3381 0.0000 5.5969
390 28 8.8520 15.8536 3.5902 5.0205 0.0000 5.8727
391 28 8.8095 14.0508 5.2065 5.7205 0.0000 5.7810
392 28 7.0521 15.9133 5.2415 5.0296 0.0000 5.7502
393 28 7.0871 13.9913 7.0702 4.3641 0.0000 6.3664
394 28 8.7483 15.8335 7.0447 4.5212 0.0000 5.8037
395 28 8.6980 14.1821 8.8511 5.5630 0.0000 7.1078
396 28 7.0432 15.8031 8.7828 4.1145 0.0000 6.6245
397 28 7.0104 14.0498 10.6460 4.2351 0.0000 5.6436
398 28 8.8223 15.8527 10.5491 4.6840 0.0000 6.4041
399 28 8.8532 14.0899 12.2863 4.6840 0.0000 6.7384
400 28 7.0633 15.8695 12.3019 4.7029 0.0000 5.4869
401 28 7.0206 14.0343 14.0782 4.3507 0.0000 6.3789
402 28 8.7888 15.8791 14.0672 4.4240 0.0000 5.7131
403 28 8.8150 14.0701 15.7719 4.8428 0.0000 6.9837
404 28 7.0445 15.7751 15.8355 4.2747 0.0000 6.8720
405 28 7.0166 14.0788 17.6057 4.1961 0.0000 5.9000
406 28 8.7822 15.8652 17.6700 4.8781 0.0000 5.9883
407 28 8.7439 14.0433 19.3820 5.1490 0.0000 6.4369
408 28 7.0654 15.8721 19.3430 5.0606 0.0000 5.8512
409 28 7.0843 17.6132 0.0171 4.3113 0.0000 6.7855
410 28 8.8060 19.3679 -0.0109 4.5467 0.0000 5.5958
411 28 8.8120 17.6098 1.7661 5.4462 0.0000 6.9834
412 28 7.0219 19.3215 1.7762 5.6674 0.0000 7.3657
413 28 7.1022 17.5595 3.5066 4.9666 0.0000 5.5976
414 28 8.8132 19.2945 3.5014 5.3710 0.0000 6.2664
415 28 8.7965 17.5755 5.2667 5.0470 0.0000 6.7136
416 28 7.0509 19.3675 5.3328 5.7607 0.0000 5.7302
417 28 7.0198 17.6279 7.0302 5.9219 0.0000 7.2195
418 28 8.8135 19.4218 7.0642 5.2500 0.0000 6.8407
419 28 8.8034 17.6502 8.8201 5.7831 0.0000 5.8509
420 28 7.0372 19.3440 8.8256 4.2151 0.0000 6.7775
421 28 6.9942 17.5878 10.5137 5.8452 0.0000 5.7435
422 28 8.8205 19.3565 10.5978 4.9319 0.0000 6.6097
423 28 8.8193 17.5621 12.3256 4.8393 0.0000 7.1305
424 28 7.0726 19.3378 12.2951 4.2140 0.0000 5.7274
425 28 7.0638 17.5993 14.1326 5.0623 0.0000 7.0940
426 28 8.8168 19.3364 14.0645 5.1377 0.0000 7.3576
427 28 8.8694 17.5316 15.8361 5.6148 0.0000 7.0448
428 28 7.0239 19.2956 15.8013 5.0139 0.0000 6.1268
429 28 7.0567 17.5079 17.5319 4.8645 0.0000 5.5648
430 28 8.8448 19.3185 17.5674 5.8494 0.0000 6.3591
431 28 8.7826 17.5096 19.4111 5.9549 0.0000 6.6797
432 28 7.1107 19.3825 19.3888 4.7106 0.0000 6.3408
433 28 10.5486 0.0341 -0.0531 4.4323 0.0000 6.6438
434 28 12.3032 1.7402 0.0131 4.7555 0.0000 6.1090
435 28 12.3766 -0.1060 1.7968 4.8841 0.0000 6.7430
436 28 10.4919 1.7687 1.8129 5.0648 0.0000 5.5553
437 28 10.5424 -0.0146 3.5247 5.7343 0.0000 5.9829
438 28 12.3137 1.8217 3.5072 4.3636 0.0000 7.2608
439 28 12.3167 -0.0190 5.2417 5.6653 0.0000 7.2756
440 28 10.5062 1.7644 5.2398 5.2634 0.0000 6.1113
441 28 10.5382 -0.0637 7.0750 4.9962 0.0000 5.9749
442 28 12.3029 1.7347 7.0137 4.8829 0.0000 6.9624
443 28 12.3831 -0.0162 8.7959 4.8002 0.0000 6.3762
444 28 10.5800 1.7635 8.7842 5.3335 0.0000 6.7985
445 28 10.5798 0.0281 10.5382 4.0860 0.0000 6.8134
446 28 12.3581 1.7232 10.5714 4.5858 0.0000 7.0444
447 28 12.2895 0.0502 12.3424 4.4339 0.0000 6.5321
448 28 10.5721 1.7680 12.3141 4.8111 0.0000 6.4718
449 28 10.5561 -0.0007 14.0503 5.1528 0.0000 5.7399
450 28 12.3583 1.7675 14.0223 5.6745 0.0000 6.8868
451 28 12.2561 0.0266 15.8502 4.3623 0.0000 6.8101
452 28 10.5051 1.7784 15.8658 5.1570 0.0000 6.2295
453 28 10.4996 -0.0800 17.6681 4.5651 0.0000 5.7023
454 28 12.3055 1.8211 17.5941 4.7089 0.0000 6.8719
455 28 12.2874 0.0430 19.3632 5.0572 0.0000 7.0568
456 28 10.5322 1.8223 19.3654 4.1305 0.0000 6.6252
457 28 10.5976 3.4611 0.0533 4.6425 0.0000 6.5975
458 28 12.3025 5.2571 0.0713 4.8854 0.0000 6.7314
459 28 12.4021 3.5306 1.8336 4.2032 0.0000 5.4631
460 28 10.5785 5.2668 1.7968 4.4926 0.0000 5.9252
461 28 10.5482 3.5621 3.5426 4.9529 0.0000 5.5455
462 28 12.2716 5.3243 3.5325 4.1569 0.0000 6.4489
463 28 12.3353 3.5031 5.2602 4.5949 0.0000 5.5282
464 28 10.5203 5.2412 5.2388 5.7297 0.0000 7.0090
465 28 10.5714 3.5661 7.0680 4.4607 0.0000 6.5020
466 28 12.3895 5.3178 7.0391 4.5333 0.0000 6.1975
467 28 12.3328 3.4592 8.8255 4.2276 0.0000 5.8272
468 28 10.5790 5.2535 8.7694 4.1948 0.0000 6.6353
469 28 10.5453 3.5234 10.5827 4.7420 0.0000 6.2009
470 28 12.3565 5.2902 10.6078 5.9539 0.0000 5.4762
471 28 12.3094 3.4957 12.2855 5.7495 0.0000 7.2547
472 28 10.4867 5.2825 12.2786 4.0348 0.0000 5.5597
473 28 10.5789 3.5566 13.9896 5.3645 0.0000 6.1318
474 28 12.3098 5.2906 14.0791 4.3200 0.0000 5.8376
475 28 12.3259 3.5005 15.8628 5.4309 0.0000 6.0873
476 28 10.6199 5.2959 15.8531 4.9392 0.0000 5.7045
477 28 10.5556 3.5065 17.6608 5.6229 0.0000 5.4984
478 28 12.3318 5.3025 17.6368 5.0474 0.0000 6.5715
479 28 12.3545 3.5429 19.3458 5.6614 0.0000 6.0937
480 28 10.6361 5.3182 19.3676 5.9085 0.0000 5.9679
481 28 10.5711 7.0435 -0.0423 4.7505 0.0000 6.4569
482 28 12.2505 8.8073 -0.0142 4.6703 0.0000 7.3316
483 28 12.3279 7.0201 1.7473 5.1386 0.0000 5.5051
484 28 10.6529 8.8650 1.7981 4.2399 0.0000 7.2999
485 28 10.5758 6.9917 3.5024 5.2410 0.0000 6.1472
486 28 12.3668 8.8171 3.4570 4.8611 0.0000 6.7253
487 28 12.3743 7.0800 5.3039 4.4597 0.0000 6.1192
488 28 10.5581 8.8322 5.2851 5.1562 0.0000 5.5466
489 28 10.5874 7.0199 7.0870 5.6816 0.0000 6.3124
490 28 12.3017 8.7729 7.0215 5.4614 0.0000 5.9869
491 28 12.2949 7.0341 8.8055 4.3419 0.0000 5.4767
492 28 10.5977 8.7808 8.8005 4.9021 0.0000 6.1781
493 28 10.5365 7.0626 10.5339 4.0688 0.0000 7.1702
494 28 12.3322 8.8203 10.5994 5.9330 0.0000 6.9869
495 28 12.3193 7.0120 12.2778 6.0256 0.0000 6.5876
496 28 10.5360 8.8262 12.3488 4.8061 0.0000 6.4840
497 28 10.5932 7.0859 14.0639 4.3118 0.0000 6.6511
498 28 12.2903 8.8172 14.0749 4.7450 0.0000 7.2630
499 28 12.3761 7.0593 15.8429 4.3080 0.0000 6.6160
500 28 10.5276 8.7769 15.8483 5.3839 0.0000 6.4666
501 28 10.5705 7.0505 17.5799 5.9002 0.0000 6.1893
502 28 12.3065 8.8165 17.6237 4.0220 0.0000 6.6106
503 28 12.2736 7.0662 19.3358 4.8897 0.0000 5.9690
504 28 10.5674 8.8171 19.3609 5.6355 0.0000 5.5195
505 28 10.5607 10.5087 0.0618 5.3477 0.0000 6.9910
506 28 12.3537 12.3396 -0.0131 4.8688 0.0000 7.1158
507 28 12.3636 10.5909 1.7812 4.7800 0.0000 7.1421
508 28 10.5693 12.3248 1.8089 4.3750 0.0000 6.8135
509 28 10.6135 10.5765 3.4873 5.8288 0.0000 6.0013
510 28 12.3451 12.3240 3.5441 5.8168 0.0000 6.9394
511 28 12.3072 10.5995 5.2901 4.7299 0.0000 5.7991
512 28 10.5365 12.3015 5.2647 4.5870 0.0000 6.1929
513 28 10.5432 10.5511 7.0416 5.1754 0.0000 6.3171
514 28 12.3554 12.3249 7.0021 4.0924 0.0000 5.5843
515 28 12.3306 10.5601 8.7495 5.5023 0.0000 7.1393
516 28 10.5720 12.3086 8.8233 5.3972 0.0000 6.7746
517 28 10.5988 10.5772 10.5132 4.6783 0.0000 6.8681
518 28 12.2798 12.3213 10.5892 4.8907 0.0000 7.3324
519 28 12.3011 10.5916 12.2844 5.4528 0.0000 6.1996
520 28 10.5896 12.2810 12.3187 5.6525 0.0000 5.5445
521 28 10.6646 10.5524 14.1162 4.4763 0.0000 5.5435
522 28 12.2579 12.2969 14.0958 5.8699 0.0000 6.7498
523 28 12.3406 10.5476 15.8565 5.1901 0.0000 5.6692
524 28 10.5563 12.3729 15.8968 5.7544 0.0000 7.3521
525 28 10.5503 10.5649 17.5901 4.5172 0.0000 6.8424
526 28 12.3528 12.3236 17.5584 4.6360 0.0000 6.5655
527 28 12.3511 10.5944 19.3376 5.2326 0.0000 7.3151
528 28 10.6103 12.2834 19.3735 5.5642 0.0000 6.3455
529 28 10.4928 14.1132 0.0132 4.4326 0.0000 6.9285
530 28 12.2873 15.8440 0.0052 4.4696 0.0000 6.5359
531 28 12.3740 14.0298 1.7542 4.3712 0.0000 7.2683
532 28 10.5331 15.8719 1.7389 5.5184 0.0000 6.9638
533 28 10.6054 14.0135 3.5144 5.9162 0.0000 7.3327
534 28 12.3700 15.8150 3.5857 5.2347 0.0000 5.9984
535 28 12.3772 14.1129 5.2840 4.8475 0.0000 5.7379
536 28 10.5504 15.7889 5.2433 4.2699 0.0000 7.2638
537 28 10.5628 14.0882 7.0136 5.9277 0.0000 6.0144
538 28 12.3920 15.9312 6.9547 4.2038 0.0000 6.7015
539 28 12.4016 14.1249 8.8033 4.1123 0.0000 6.8814
540 28 10.5980 15.8462 8.8042 4.5037 0.0000 6.0100
541 28 10.5181 14.0574 10.5166 4.5617 0.0000 6.2869
542 28 12.2658 15.8234 10.6460 5.6064 0.0000 7.3105
543 28 12.3849 14.0321 12.3110 5.9475 0.0000 5.5051
544 28 10.5313 15.8187 12.3625 5.3564 0.0000 6.4229
545 28 10.5283 14.1190 14.0709 4.6862 0.0000 7.2092
546 28 12.2685 15.8161 14.0728 5.5019 0.0000 6.0610
547 28 12.3380 14.1467 15.8656 4.8089 0.0000 6.8950
548 28 10.4968 15.7652 15.7582 5.1627 0.0000 6.4822
549 28 10.4844 14.1068 17.6165 4.5655 0.0000 7.1110
550 28 12.3641 15.8426 17.5971 4.1279 0.0000 6.4457
551 28 12.3298 14.0273 19.3320 6.0039 0.0000 5.6537
552 28 10.5119 15.8014 19.3503 4.1525 0.0000 6.7759
553 28 10.5536 17.5732 0.0243 4.5583 0.0000 6.2402
554 28 12.2708 19.3973 -0.0013 4.5056 0.0000 6.2298
555 28 12.3109 17.6386 1.7219 4.4214 0.0000 6.4497
556 28 10.5355 19.3737 1.7234 5.0478 0.0000 6.5165
557 28 10.5680 17.6313 3.4693 4.5089 0.0000 5.9787
558 28 12.3426 19.3922 3.5682 4.2921 0.0000 5.7864
559 28 12.2582 17.5673 5.2407 4.2214 0.0000 6.2021
560 28 10.5957 19.3522 5.2281 5.2570 0.0000 6.5156
561 28 10.6541 17.6693 7.0776 5.0551 0.0000 6.9193
562 28 12.3633 19.3112 7.1007 4.3912 0.0000 7.2962
563 28 12.3607 17.6560 8.7657 5.6980 0.0000 5.8226
564 28 10.5502 19.3568 8.8383 5.1883 0.0000 7.1707
565 28 10.6032 17.6643 10.6174 4.6949 0.0000 5.9850
566 28 12.2700 19.3759 10.5919 4.0468 0.0000 6.4441
567 28 12.2856 17.6419 12.3222 5.0000 0.0000 6.0208
568 28 10.5655 19.3463 12.3542 5.2308 0.0000 7.2504
569 28 10.5624 17.5836 14.0588 5.1545 0.0000 6.4899
570 28 12.2544 19.3873 14.1086 5.1270 0.0000 5.9785
571 28 12.3370 17.6249 15.8463 5.1563 0.0000 6.4820
572 28 10.5537 19.3701 15.8407 4.6713 0.0000 6.6494
573 28 10.5304 17.5829 17.6283 5.6822 0.0000 7.0971
574 28 12.2737 19.3232 17.5853 4.4987 0.0000 6.2526
575 28 12.2582 17.6057 19.4049 4.9981 0.0000 6.7551
576 28 10.5581 19.3470 19.3049 6.0113 0.0000 6.2476
577 28 14.0716 -0.0690 0.0337 5.4678 0.0000 7.2076
578 28 15.7770 1.7009 0.0396 5.8822 0.0000 6.5072
579 28 15.8783 0.0307 1.6934 4.8247 0.0000 6.2556
580 28 14.1171 1.7655 1.7139 4.9075 0.0000 5.7710
581 28 14.1366 -0.0044 3.5071 5.8986 0.0000 5.7033
582 28 15.8019 1.7862 3.4824 4.1786 0.0000 7.0043
583 28 15.8694 0.0264 5.2612 4.2225 0.0000 7.2263
584 28 14.1198 1.8124 5.3770 4.1585 0.0000 6.4066
585 28 14.0466 0.0206 7.0363 5.0160 0.0000 6.5255
586 28 15.9017 1.7416 7.0309 5.5686 0.0000 6.2680
587 28 15.8610 -0.0008 8.8117 5.6917 0.0000 5.5156
588 28 14.1172 1.7437 8.8015 5.3483 0.0000 5.9410
589 28 14.1141 0.0362 10.5790 4.8399 0.0000 5.7773
590 28 15.7687 1.6974 10.5442 5.9594 0.0000 7.2310
591 28 15.8398 -0.0201 12.3253 4.8623 0.0000 5.8220
592 28 14.0987 1.8415 12.3288 5.3295 0.0000 5.6604
593 28 14.0827 -0.0394 14.0839 5.5342 0.0000 6.0809
594 28 15.8486 1.7566 14.1262 5.9180 0.0000 6.9764