ITEM: TIMESTEP
0
ITEM: NUMBER OF ATOMS
864
ITEM: BOX BOUNDS pp pp pp
0.0 24.5160
0.0 24.5160
0.0 24.5160
ITEM: ATOMS id type x y z error strain stiffness
1 47 0.0016 0.0071 0.0142 1.3932 0.0000 0.9656
2 47 2.0415 2.0414 -0.0092 1.1795 0.0000 0.8292
3 47 2.0182 0.0011 2.0440 1.3834 0.0000 0.9371
4 47 -0.0074 2.0518 2.0490 1.4613 0.0000 0.8069
5 47 0.0025 -0.0093 4.0811 1.1682 0.0000 0.9583
6 47 2.0442 2.0348 4.0804 1.1776 0.0000 0.8530
7 47 2.0399 -0.0156 6.1173 1.3537 0.0000 1.0060
8 47 -0.0118 2.0566 6.1212 1.3415 0.0000 0.9381
9 47 -0.0022 0.0163 8.1961 1.5060 0.0000 0.8135
10 47 2.0405 2.0363 8.1839 1.2519 0.0000 1.0050
11 47 2.0228 0.0027 10.2460 1.0833 0.0000 0.9451
12 47 -0.0093 2.0441 10.2019 1.2017 0.0000 0.9141
13 47 0.0018 -0.0031 12.2670 1.3762 0.0000 0.9536
14 47 2.0497 2.0435 12.2634 1.4287 0.0000 1.0185
15 47 2.0439 0.0144 14.2963 1.2384 0.0000 0.8200
16 47 0.0039 2.0455 14.2888 1.4067 0.0000 0.9692
17 47 0.0008 0.0043 16.3403 1.0696 0.0000 0.8068
18 47 2.0367 2.0220 16.3405 1.3551 0.0000 0.9291
19 47 2.0337 0.0104 18.3880 1.0761 0.0000 0.9847
20 47 0.0018 2.0338 18.3976 1.1552 0.0000 0.7755
21 47 0.0011 0.0004 20.4349 1.3176 0.0000 0.9946
22 47 2.0299 2.0439 20.4358 1.4250 0.0000 0.7723
23 47 2.0397 0.0130 22.4741 1.1910 0.0000 0.8249
24 47 0.0117 2.0533 22.4937 1.3558 0.0000 0.9845
25 47 0.0114 4.0811 -0.0205 1.0555 0.0000 0.7801
26 47 2.0671 6.1210 0.0022 1.0938 0.0000 0.8062
27 47 2.0365 4.0700 2.0357 1.0944 0.0000 0.7909
28 47 0.0034 6.1396 2.0595 1.1269 0.0000 0.8368
29 47 -0.0117 4.1001 4.0945 1.1655 0.0000 0.9677
30 47 2.0415 6.1218 4.1011 1.2680 0.0000 0.9172
31 47 2.0367 4.0728 6.1308 1.2742 0.0000 0.8343
32 47 -0.0031 6.1257 6.1369 1.3018 0.0000 1.0130
33 47 -0.0110 4.0826 8.1663 1.5071 0.0000 0.8929
34 47 2.0367 6.1182 8.1864 1.0642 0.0000 0.8032
35 47 2.0323 4.0774 10.2116 1.1500 0.0000 0.9822
36 47 0.0003 6.1178 10.2206 1.0691 0.0000 0.8258
37 47 -0.0145 4.0984 12.2433 1.1919 0.0000 0.9051
38 47 2.0416 6.1342 12.2641 1.4651 0.0000 0.9021
39 47 2.0429 4.0954 14.3131 1.0342 0.0000 0.9380
40 47 -0.0045 6.1257 14.2905 1.1605 0.0000 0.9283
41 47 0.0131 4.0988 16.3350 1.0956 0.0000 0.8165
42 47 2.0558 6.1326 16.3542 1.4292 0.0000 0.8164
43 47 2.0474 4.0799 18.4073 1.3073 0.0000 0.8754
44 47 0.0128 6.1310 18.3858 1.3607 0.0000 0.9388
45 47 0.0032 4.0694 20.4500 1.3659 0.0000 0.9697
46 47 2.0609 6.1347 20.4296 1.1569 0.0000 0.9708
47 47 2.0520 4.0860 22.4647 1.4771 0.0000 0.9451
48 47 0.0011 6.1286 22.4647 1.0542 0.0000 0.8616
49 47 -0.0112 8.1670 -0.0012 1.2737 0.0000 0.9015
50 47 2.0432 10.2143 -0.0019 1.2480 0.0000 0.9011
51 47 2.0609 8.1705 2.0621 1.2743 0.0000 0.9909
52 47 -0.0153 10.2368 2.0242 1.2428 0.0000 0.8625
53 47 0.0098 8.1654 4.0862 1.2519 0.0000 0.8423
54 47 2.0356 10.2094 4.0768 1.2663 0.0000 0.9813
55 47 2.0310 8.1663 6.1278 1.0849 0.0000 0.9884
56 47 -0.0024 10.2088 6.1374 1.3409 0.0000 0.9201
57 47 0.0021 8.1658 8.1642 1.1071 0.0000 0.9058
58 47 2.0536 10.2011 8.1849 1.3879 0.0000 0.8081
59 47 2.0445 8.1731 10.2113 1.2991 0.0000 1.0237
60 47 0.0036 10.2486 10.2237 1.0320 0.0000 0.9827
61 47 0.0170 8.1762 12.2478 1.1724 0.0000 0.9397
62 47 2.0422 10.2262 12.2512 1.0752 0.0000 0.9724
63 47 2.0570 8.1516 14.2995 1.1353 0.0000 0.7905
64 47 0.0185 10.2271 14.3104 1.2269 0.0000 0.8495
65 47 0.0080 8.1779 16.3275 1.1221 0.0000 0.9497
66 47 2.0590 10.2109 16.3409 1.1285 0.0000 0.7888
67 47 2.0481 8.1665 18.3702 1.3474 0.0000 0.8076
68 47 -0.0043 10.2240 18.3975 1.3241 0.0000 0.9699
69 47 -0.0214 8.1803 20.4384 1.4710 0.0000 0.7844
70 47 2.0440 10.2159 20.4141 1.3127 0.0000 0.9005
71 47 2.0418 8.1794 22.4752 1.3268 0.0000 0.8537
72 47 -0.0131 10.2146 22.4824 1.1126 0.0000 1.0167
73 47 0.0013 12.2712 -0.0068 1.0730 0.0000 0.8215
74 47 2.0173 14.3000 -0.0014 1.0848 0.0000 0.9466
75 47 2.0443 12.2564 2.0531 1.3128 0.0000 0.8170
76 47 -0.0089 14.2914 2.0379 1.1203 0.0000 0.8600
77 47 0.0072 12.2756 4.1085 1.0230 0.0000 0.8603
78 47 2.0352 14.3154 4.0803 1.0967 0.0000 0.9615
79 47 2.0509 12.2391 6.1287 1.4801 0.0000 0.8951
80 47 -0.0123 14.3004 6.1303 1.0209 0.0000 1.0325
81 47 -0.0073 12.2781 8.1651 1.0539 0.0000 1.0019
82 47 2.0511 14.3050 8.1803 1.4779 0.0000 1.0052
83 47 2.0405 12.2548 10.2042 1.2857 0.0000 0.7852
84 47 -0.0064 14.3075 10.2206 1.4193 0.0000 0.8299
85 47 -0.0074 12.2358 12.2579 1.0175 0.0000 0.9868
86 47 2.0448 14.3283 12.2490 1.1766 0.0000 1.0119
87 47 2.0474 12.2389 14.3013 1.1900 0.0000 0.8937
88 47 -0.0055 14.2955 14.2905 1.3036 0.0000 0.9327
89 47 0.0017 12.2580 16.3399 1.4699 0.0000 0.8471
90 47 2.0220 14.2853 16.3713 1.1101 0.0000 0.8520
91 47 2.0308 12.2396 18.3666 1.3281 0.0000 0.9719
92 47 -0.0078 14.3039 18.4029 1.2499 0.0000 0.8307
93 47 -0.0033 12.2717 20.4239 1.4568 0.0000 0.9944
94 47 2.0179 14.3015 20.4279 1.3069 0.0000 0.9065
95 47 2.0376 12.2641 22.4619 1.3956 0.0000 1.0145
96 47 -0.0142 14.3118 22.4820 1.2784 0.0000 0.8483
97 47 -0.0026 16.3590 -0.0033 1.1502 0.0000 0.7928
98 47 2.0539 18.4001 0.0012 1.4534 0.0000 1.0303
99 47 2.0424 16.3325 2.0581 1.2532 0.0000 1.0041
100 47 0.0010 18.3997 2.0480 1.3958 0.0000 0.9536
101 47 -0.0102 16.3329 4.0736 1.2405 0.0000 0.9038
102 47 2.0375 18.3760 4.0743 1.5139 0.0000 1.0198
103 47 2.0468 16.3319 6.1382 1.3429 0.0000 0.8302
104 47 -0.0012 18.3920 6.1420 1.4523 0.0000 0.8905
105 47 0.0007 16.3359 8.1548 1.3355 0.0000 0.8537
106 47 2.0447 18.3826 8.1622 1.3268 0.0000 0.8732
107 47 2.0510 16.3503 10.2045 1.2286 0.0000 1.0098
108 47 0.0035 18.3910 10.2115 1.3284 0.0000 0.8863
109 47 -0.0178 16.3597 12.2599 1.1591 0.0000 1.0050
110 47 2.0345 18.3878 12.2644 1.4046 0.0000 0.9887
111 47 2.0524 16.3381 14.3024 1.4574 0.0000 0.9090
112 47 0.0149 18.4020 14.2914 1.4894 0.0000 0.8255
113 47 0.0095 16.3598 16.3389 1.1809 0.0000 0.7681
114 47 2.0414 18.3894 16.3387 1.0369 0.0000 0.9953
115 47 2.0454 16.3129 18.3829 1.0835 0.0000 0.9908
116 47 0.0106 18.3722 18.3807 1.1921 0.0000 0.7849
117 47 0.0006 16.3412 20.4032 1.2071 0.0000 0.7756
118 47 2.0478 18.3832 20.4119 1.1853 0.0000 0.8843
119 47 2.0370 16.3322 22.4777 1.4485 0.0000 0.8473
120 47 0.0038 18.3814 22.4714 1.3581 0.0000 0.7837
121 47 -0.0222 20.4439 -0.0089 1.2564 0.0000 0.8536
122 47 2.0351 22.4691 0.0066 1.4154 0.0000 0.9482
123 47 2.0342 20.4195 2.0343 1.3238 0.0000 0.9420
124 47 -0.0058 22.4600 2.0501 1.4344 0.0000 0.8234
125 47 -0.0049 20.4292 4.0885 1.1966 0.0000 0.9676
126 47 2.0437 22.4735 4.1023 1.2448 0.0000 0.8000
127 47 2.0372 20.4153 6.1188 1.0278 0.0000 0.8200
128 47 -0.0034 22.4797 6.1320 1.0346 0.0000 0.8706
129 47 0.0106 20.4218 8.1688 1.3879 0.0000 1.0198
130 47 2.0451 22.4739 8.1683 1.2589 0.0000 0.9930
131 47 2.0402 20.4351 10.2062 1.3151 0.0000 0.9798
132 47 0.0015 22.4805 10.2219 1.1735 0.0000 0.8888
133 47 0.0054 20.4352 12.2665 1.0672 0.0000 0.9843
134 47 2.0412 22.4644 12.2415 1.0795 0.0000 0.8265
135 47 2.0293 20.4217 14.3026 1.3669 0.0000 0.9266
136 47 -0.0005 22.4888 14.3222 1.1822 0.0000 0.9663
137 47 -0.0150 20.4263 16.3334 1.1877 0.0000 1.0019
138 47 2.0469 22.4861 16.3512 1.4663 0.0000 0.9705
139 47 2.0433 20.4196 18.3629 1.2291 0.0000 1.0340
140 47 0.0057 22.4686 18.3718 1.0171 0.0000 0.9668
141 47 -0.0082 20.4438 20.4333 1.2984 0.0000 0.8805
142 47 2.0264 22.4669 20.4161 1.3142 0.0000 0.9748
143 47 2.0285 20.4254 22.4657 1.2390 0.0000 0.8973
144 47 -0.0102 22.4690 22.4778 1.1627 0.0000 0.9605
145 47 4.0930 -0.0129 0.0047 1.4862 0.0000 0.8632
146 47 6.1241 2.0499 0.0088 1.4158 0.0000 0.9545
147 47 6.1271 0.0030 2.0346 1.1474 0.0000 0.7789
148 47 4.0948 2.0470 2.0583 1.3125 0.0000 0.8729
149 47 4.1058 0.0056 4.1087 1.1179 0.0000 0.8190
150 47 6.1156 2.0240 4.0653 1.2653 0.0000 0.8389
151 47 6.1330 -0.0206 6.1147 1.1595 0.0000 0.8876
152 47 4.0849 2.0289 6.1256 1.4825 0.0000 0.9245
153 47 4.0647 0.0050 8.1871 1.0901 0.0000 0.8892
154 47 6.1216 2.0493 8.1728 1.4780 0.0000 1.0368
155 47 6.1423 0.0071 10.2105 1.3790 0.0000 0.8636
156 47 4.0641 2.0421 10.2143 1.1240 0.0000 1.0178
157 47 4.0949 0.0245 12.2815 1.1980 0.0000 0.9024
158 47 6.1166 2.0459 12.2712 1.2371 0.0000 0.9887
159 47 6.1268 -0.0133 14.2888 1.3866 0.0000 0.9580
160 47 4.0685 2.0387 14.2907 1.3601 0.0000 1.0266
161 47 4.0681 -0.0111 16.3425 1.2158 0.0000 0.9088
162 47 6.1403 2.0422 16.3494 1.4729 0.0000 0.8968
163 47 6.1158 0.0060 18.3816 1.3635 0.0000 1.0075
164 47 4.0782 2.0366 18.3815 1.0964 0.0000 0.9112
165 47 4.0835 -0.0088 20.4206 1.3823 0.0000 0.8914
166 47 6.1425 2.0486 20.4451 1.4693 0.0000 1.0331
167 47 6.1278 0.0079 22.4552 1.0533 0.0000 0.9460
168 47 4.0903 2.0543 22.4804 1.4649 0.0000 0.7866
169 47 4.0792 4.0843 0.0044 1.2959 0.0000 0.8630
170 47 6.1328 6.1299 0.0058 1.1019 0.0000 1.0385
171 47 6.1363 4.1062 2.0496 1.0551 0.0000 0.9946
172 47 4.1039 6.1356 2.0524 1.3113 0.0000 0.8152
173 47 4.0873 4.0904 4.0946 1.0856 0.0000 1.0104
174 47 6.1440 6.1332 4.0861 1.3580 0.0000 1.0155
175 47 6.1249 4.0845 6.1495 1.0671 0.0000 0.8670
176 47 4.0887 6.1366 6.1309 1.4621 0.0000 0.9109
177 47 4.0918 4.0844 8.1588 1.4198 0.0000 0.8418
178 47 6.1412 6.1341 8.1558 1.1834 0.0000 0.9876
179 47 6.1245 4.0703 10.2323 1.4445 0.0000 0.8713
180 47 4.0773 6.1387 10.2137 1.2064 0.0000 0.7869
181 47 4.0876 4.0959 12.2434 1.1122 0.0000 1.0253
182 47 6.1302 6.1341 12.2612 1.1209 0.0000 0.9433
183 47 6.1287 4.0964 14.3075 1.4537 0.0000 0.7962
184 47 4.0846 6.1284 14.3029 1.0466 0.0000 0.9246
185 47 4.0921 4.0814 16.3562 1.2112 0.0000 0.8405
186 47 6.1205 6.1239 16.3530 1.0942 0.0000 0.9014
187 47 6.1205 4.0824 18.3968 1.0690 0.0000 0.9492
188 47 4.0980 6.1214 18.3938 1.5106 0.0000 0.8074
189 47 4.1018 4.0997 20.4265 1.3513 0.0000 1.0109
190 47 6.1230 6.1380 20.4194 1.1325 0.0000 0.7994
191 47 6.1483 4.0838 22.4564 1.3643 0.0000 0.8397
192 47 4.0892 6.1312 22.4846 1.0295 0.0000 0.8496
193 47 4.0754 8.1600 0.0176 1.0489 0.0000 0.8761
194 47 6.1345 10.1973 -0.0064 1.5076 0.0000 0.7770
195 47 6.1070 8.1601 2.0295 1.4549 0.0000 0.8638
196 47 4.0873 10.2211 2.0308 1.1192 0.0000 0.8498
197 47 4.1031 8.1800 4.0712 1.1630 0.0000 0.9959
198 47 6.1238 10.2110 4.0945 1.4880 0.0000 1.0291
199 47 6.1225 8.1788 6.1298 1.3144 0.0000 1.0061
200 47 4.1024 10.2081 6.1400 1.4142 0.0000 1.0105
201 47 4.0714 8.1616 8.1781 1.2116 0.0000 1.0052
202 47 6.1386 10.1995 8.1735 1.3136 0.0000 0.9454
203 47 6.1308 8.1912 10.2110 1.1910 0.0000 0.7974
204 47 4.0874 10.1959 10.2141 1.3278 0.0000 0.9883
205 47 4.0876 8.1644 12.2432 1.2636 0.0000 0.9600
206 47 6.1297 10.2122 12.2491 1.2107 0.0000 1.0240
207 47 6.1093 8.1753 14.3070 1.1845 0.0000 0.9118
208 47 4.0769 10.2246 14.2936 1.0765 0.0000 0.8934
209 47 4.1029 8.1742 16.3394 1.2548 0.0000 0.7830
210 47 6.1156 10.2261 16.3483 1.4272 0.0000 0.8717
211 47 6.1136 8.1647 18.3912 1.1439 0.0000 1.0058
212 47 4.0939 10.2072 18.3946 1.3849 0.0000 0.8462
213 47 4.0895 8.1576 20.4150 1.1882 0.0000 0.8733
214 47 6.1171 10.1957 20.4407 1.4713 0.0000 0.8376
215 47 6.1293 8.1819 22.4656 1.1204 0.0000 1.0066
216 47 4.0787 10.2065 22.4641 1.4756 0.0000 1.0009
217 47 4.0748 12.2551 -0.0114 1.0879 0.0000 0.7835
218 47 6.1220 14.3066 0.0015 1.4395 0.0000 0.9852
219 47 6.1310 12.2560 2.0520 1.0453 0.0000 1.0044
220 47 4.0748 14.3007 2.0498 1.1979 0.0000 1.0080
221 47 4.0904 12.2677 4.0890 1.2224 0.0000 0.8127
222 47 6.1360 14.3152 4.0767 1.1410 0.0000 0.8720
223 47 6.1220 12.2411 6.1337 1.2251 0.0000 0.9814
224 47 4.1014 14.3023 6.1137 1.1358 0.0000 0.9377
225 47 4.0971 12.2402 8.1724 1.4510 0.0000 0.8533
226 47 6.1173 14.2951 8.1732 1.0530 0.0000 0.9230
227 47 6.1362 12.2512 10.2109 1.2103 0.0000 0.9408
228 47 4.0818 14.3230 10.2111 1.1912 0.0000 0.8118
229 47 4.0908 12.2368 12.2528 1.3664 0.0000 0.9367
230 47 6.1320 14.3047 12.2542 1.4300 0.0000 0.9425
231 47 6.1167 12.2598 14.3122 1.0393 0.0000 0.9623
232 47 4.0866 14.3098 14.2931 1.3391 0.0000 0.7678
233 47 4.0903 12.2800 16.3391 1.1499 0.0000 0.9117
234 47 6.1456 14.3295 16.3486 1.1276 0.0000 0.8718
235 47 6.1326 12.2608 18.3768 1.1129 0.0000 1.0333
236 47 4.0965 14.2791 18.3925 1.3355 0.0000 0.9992
237 47 4.0923 12.2763 20.4293 1.3242 0.0000 0.9317
238 47 6.1407 14.2925 20.4462 1.1609 0.0000 0.8761
239 47 6.1407 12.2709 22.4705 1.3160 0.0000 0.9893
240 47 4.0800 14.3108 22.4836 1.1864 0.0000 0.8411
241 47 4.0811 16.3538 0.0258 1.3505 0.0000 1.0250
242 47 6.1359 18.3692 0.0020 1.1885 0.0000 0.8512
243 47 6.1290 16.3549 2.0458 1.0922 0.0000 0.7874
244 47 4.0727 18.3521 2.0384 1.5059 0.0000 0.8545
245 47 4.0806 16.3564 4.0792 1.0338 0.0000 0.8551
246 47 6.1333 18.3907 4.0902 1.0534 0.0000 0.9571
247 47 6.1231 16.3412 6.1345 1.1539 0.0000 0.7830
248 47 4.0667 18.3929 6.1408 1.0809 0.0000 1.0343
249 47 4.0751 16.3575 8.1752 1.2430 0.0000 0.8220
250 47 6.1278 18.4008 8.1639 1.3578 0.0000 0.9146
251 47 6.1292 16.3435 10.2137 1.1563 0.0000 1.0038
252 47 4.1103 18.3851 10.2086 1.3517 0.0000 0.8295
253 47 4.0846 16.3453 12.2741 1.2453 0.0000 0.8486
254 47 6.1189 18.3853 12.2602 1.3493 0.0000 0.9379
255 47 6.1362 16.3418 14.3021 1.1163 0.0000 0.8155
256 47 4.0934 18.3830 14.2909 1.4371 0.0000 0.8828
257 47 4.0788 16.3362 16.3500 1.1992 0.0000 0.9958
258 47 6.1300 18.3797 16.3335 1.1094 0.0000 0.8300
259 47 6.1364 16.3493 18.3873 1.3825 0.0000 1.0216
260 47 4.0749 18.3905 18.3895 1.2937 0.0000 0.9921
261 47 4.0835 16.3519 20.4223 1.2326 0.0000 0.8300
262 47 6.1095 18.3865 20.4357 1.4997 0.0000 0.8105
263 47 6.1361 16.3525 22.4703 1.2959 0.0000 0.8915
264 47 4.0682 18.3955 22.4607 1.2389 0.0000 0.7838
265 47 4.0796 20.4405 -0.0118 1.3838 0.0000 0.8792
266 47 6.1226 22.4874 0.0066 1.2008 0.0000 0.8186
267 47 6.1108 20.4250 2.0424 1.0734 0.0000 0.8824
268 47 4.0808 22.4816 2.0544 1.1441 0.0000 1.0161
269 47 4.0707 20.4250 4.0918 1.4436 0.0000 0.7876
270 47 6.1317 22.4762 4.0857 1.3504 0.0000 0.7757
271 47 6.1317 20.4303 6.1061 1.4357 0.0000 1.0027
272 47 4.0971 22.4779 6.1310 1.4627 0.0000 0.7909
273 47 4.0883 20.4288 8.1589 1.1951 0.0000 0.8998
274 47 6.1392 22.4825 8.1765 1.2675 0.0000 0.8588
275 47 6.1201 20.4297 10.2063 1.4068 0.0000 1.0049
276 47 4.0822 22.4816 10.2146 1.2429 0.0000 1.0128
277 47 4.0936 20.4265 12.2688 1.2163 0.0000 0.8664
278 47 6.1367 22.4768 12.2582 1.3541 0.0000 0.8949
279 47 6.1049 20.4254 14.2941 1.0753 0.0000 0.9671
280 47 4.0768 22.4848 14.2760 1.3970 0.0000 0.9312
281 47 4.0997 20.4196 16.3516 1.0701 0.0000 0.8804
282 47 6.1148 22.4642 16.3465 1.1884 0.0000 0.8834
283 47 6.1135 20.3967 18.4016 1.1346 0.0000 0.9063
284 47 4.0976 22.4708 18.3954 1.1491 0.0000 0.8353
285 47 4.0861 20.4468 20.4136 1.2527 0.0000 0.9862
286 47 6.1322 22.4669 20.4348 1.2459 0.0000 0.8432
287 47 6.1244 20.4197 22.4621 1.4425 0.0000 0.9701
288 47 4.0787 22.4652 22.4671 1.2929 0.0000 0.8057
289 47 8.1866 0.0082 0.0093 1.3803 0.0000 0.8142
290 47 10.1931 2.0417 -0.0125 1.0588 0.0000 1.0359
291 47 10.2289 -0.0262 2.0384 1.4526 0.0000 0.8242
292 47 8.1807 2.0364 2.0323 1.3323 0.0000 0.8409
293 47 8.1800 -0.0182 4.0720 1.4756 0.0000 0.8862
294 47 10.2157 2.0423 4.0994 1.3266 0.0000 0.8343
295 47 10.2045 -0.0026 6.1347 1.0838 0.0000 0.9466
296 47 8.1797 2.0346 6.1333 1.1483 0.0000 0.9692
297 47 8.1501 0.0165 8.1625 1.3710 0.0000 0.8401
298 47 10.2131 2.0522 8.1777 1.4579 0.0000 0.8361
299 47 10.1927 -0.0025 10.2108 1.1180 0.0000 0.8886
300 47 8.1750 2.0475 10.2202 1.3155 0.0000 0.9871
301 47 8.1877 -0.0087 12.2409 1.1474 0.0000 0.8179
302 47 10.2162 2.0526 12.2586 1.3825 0.0000 0.9602
303 47 10.2184 -0.0049 14.3140 1.3273 0.0000 1.0215
304 47 8.1635 2.0483 14.2910 1.3143 0.0000 0.8202
305 47 8.1818 -0.0033 16.3429 1.4522 0.0000 0.9014
306 47 10.2234 2.0477 16.3308 1.0941 0.0000 0.8613
307 47 10.2195 0.0169 18.3926 1.5143 0.0000 0.8974
308 47 8.1803 2.0476 18.3861 1.4003 0.0000 0.8962
309 47 8.1609 -0.0162 20.4136 1.2014 0.0000 0.8885
310 47 10.2124 2.0319 20.4239 1.0377 0.0000 0.9088
311 47 10.2108 -0.0088 22.4900 1.1285 0.0000 0.7894
312 47 8.1788 2.0441 22.4803 1.4978 0.0000 1.0112
313 47 8.1792 4.0818 0.0143 1.1324 0.0000 1.0103
314 47 10.2097 6.1406 0.0001 1.4880 0.0000 0.8194
315 47 10.2040 4.0873 2.0465 1.4174 0.0000 0.9046
316 47 8.1733 6.1376 2.0485 1.3169 0.0000 0.8095
317 47 8.1741 4.0831 4.0975 1.2341 0.0000 0.8385
318 47 10.2247 6.1225 4.0843 1.4503 0.0000 1.0342
319 47 10.2230 4.0891 6.1148 1.0196 0.0000 0.8556
320 47 8.1738 6.1382 6.1162 1.1416 0.0000 0.9304
321 47 8.1660 4.0979 8.1662 1.3320 0.0000 1.0370
322 47 10.2157 6.1326 8.1688 1.0367 0.0000 0.9038
323 47 10.2100 4.0832 10.2341 1.0224 0.0000 0.9205
324 47 8.1801 6.1386 10.2161 1.2580 0.0000 0.9448
325 47 8.1845 4.0915 12.2657 1.1559 0.0000 0.9343
326 47 10.2107 6.1323 12.2477 1.0984 0.0000 0.7877
327 47 10.2319 4.0823 14.3076 1.3923 0.0000 0.8668
328 47 8.1720 6.1290 14.3198 1.4261 0.0000 0.9435
329 47 8.1693 4.0715 16.3501 1.3238 0.0000 0.9652
330 47 10.2042 6.1261 16.3602 1.1980 0.0000 0.9456
331 47 10.2243 4.0823 18.3958 1.3302 0.0000 0.7781
332 47 8.1653 6.1228 18.3794 1.3204 0.0000 0.9410
333 47 8.1759 4.0896 20.4283 1.5062 0.0000 0.9147
334 47 10.2057 6.1370 20.4354 1.1899 0.0000 0.8608
335 47 10.2184 4.0800 22.4771 1.2065 0.0000 0.9755
336 47 8.1718 6.1291 22.4785 1.3179 0.0000 0.9954
337 47 8.1779 8.1699 0.0097 1.4301 0.0000 0.8365
338 47 10.2112 10.1955 0.0074 1.1744 0.0000 1.0194
339 47 10.2241 8.1675 2.0603 1.4085 0.0000 0.8436
340 47 8.1653 10.2192 2.0439 1.1011 0.0000 0.9383
341 47 8.1718 8.1640 4.0749 1.2472 0.0000 0.8246
342 47 10.2291 10.2315 4.0699 1.4516 0.0000 0.9749
343 47 10.2156 8.1849 6.1406 1.1278 0.0000 0.9745
344 47 8.1917 10.2148 6.1235 1.4060 0.0000 0.8614
345 47 8.1781 8.1668 8.1664 1.4476 0.0000 0.8666
346 47 10.2332 10.2000 8.1622 1.1126 0.0000 0.9456
347 47 10.2239 8.1893 10.2060 1.1565 0.0000 0.8330
348 47 8.1578 10.2210 10.2319 1.0137 0.0000 0.9766
349 47 8.1682 8.1726 12.2565 1.2027 0.0000 0.8130
350 47 10.2105 10.2112 12.2605 1.1738 0.0000 0.9063
351 47 10.2161 8.1750 14.2902 1.4248 0.0000 0.8231
352 47 8.1618 10.2235 14.2832 1.4961 0.0000 1.0335
353 47 8.1544 8.1696 16.3436 1.4429 0.0000 0.9633
354 47 10.2296 10.2056 16.3426 1.1494 0.0000 0.7998
355 47 10.2334 8.1615 18.3937 1.2141 0.0000 0.9589
356 47 8.2034 10.2151 18.3940 1.5071 0.0000 0.7798
357 47 8.1727 8.1696 20.4292 1.3856 0.0000 0.8136
358 47 10.2126 10.2018 20.4469 1.4580 0.0000 0.9449
359 47 10.2123 8.1651 22.4599 1.4550 0.0000 0.9607
360 47 8.1654 10.2156 22.4622 1.2897 0.0000 0.8250
361 47 8.1908 12.2468 0.0211 1.3666 0.0000 0.9831
362 47 10.2153 14.2897 0.0029 1.3658 0.0000 0.9936
363 47 10.2288 12.2475 2.0278 1.0148 0.0000 0.8816
364 47 8.1906 14.3042 2.0550 1.1518 0.0000 0.9584
365 47 8.1702 12.2733 4.0696 1.0871 0.0000 0.9313
366 47 10.2055 14.3032 4.0793 1.0834 0.0000 1.0051
367 47 10.2039 12.2680 6.1421 1.1435 0.0000 0.8297
368 47 8.1703 14.3047 6.1292 1.2414 0.0000 0.7748
369 47 8.1773 12.2650 8.1672 1.3797 0.0000 1.0244
370 47 10.2227 14.3090 8.1678 1.3645 0.0000 0.7948
371 47 10.2167 12.2541 10.1920 1.0578 0.0000 0.9955
372 47 8.1568 14.3053 10.2178 1.3281 0.0000 0.7798
373 47 8.1779 12.2530 12.2802 1.4541 0.0000 0.9832
374 47 10.2067 14.3090 12.2522 1.1771 0.0000 0.9793
375 47 10.2039 12.2615 14.2957 1.1935 0.0000 0.9423
376 47 8.1617 14.3200 14.2984 1.4668 0.0000 1.0063
377 47 8.1671 12.2370 16.3588 1.2046 0.0000 0.9311
378 47 10.2192 14.2984 16.3441 1.4144 0.0000 1.0156
379 47 10.2073 12.2424 18.3880 1.1967 0.0000 0.9575
380 47 8.1855 14.3218 18.3938 1.3878 0.0000 0.8325
381 47 8.1751 12.2368 20.4069 1.1599 0.0000 0.9516
382 47 10.2180 14.2972 20.4419 1.1567 0.0000 0.9294
383 47 10.2173 12.2647 22.4753 1.0721 0.0000 1.0264
384 47 8.1477 14.3003 22.4777 1.2445 0.0000 0.9758
385 47 8.1736 16.3493 0.0107 1.3379 0.0000 0.9809
386 47 10.2116 18.3879 0.0183 1.4185 0.0000 0.7994
387 47 10.2091 16.3404 2.0497 1.4301 0.0000 0.8065
388 47 8.1548 18.3859 2.0476 1.4414 0.0000 0.8085
389 47 8.1755 16.3378 4.1030 1.2520 0.0000 0.7724
390 47 10.2060 18.3996 4.0831 1.2459 0.0000 0.7690
391 47 10.2146 16.3388 6.1448 1.1054 0.0000 0.8610
392 47 8.1704 18.3684 6.1387 1.4372 0.0000 0.9967
393 47 8.1657 16.3422 8.1767 1.0243 0.0000 0.9186
394 47 10.2192 18.3978 8.1687 1.2436 0.0000 0.8607
395 47 10.1984 16.3476 10.2234 1.2901 0.0000 0.9676
396 47 8.1808 18.3875 10.2118 1.2120 0.0000 0.9956
397 47 8.1860 16.3528 12.2623 1.4994 0.0000 0.9963
398 47 10.2180 18.3850 12.2522 1.3923 0.0000 0.7997
399 47 10.2203 16.3452 14.2878 1.0475 0.0000 0.7678
400 47 8.1597 18.3820 14.3037 1.1676 0.0000 0.8577
401 47 8.2102 16.3434 16.3354 1.4910 0.0000 0.8791
402 47 10.2340 18.4089 16.3317 1.2031 0.0000 0.7893
403 47 10.2195 16.3340 18.3803 1.4282 0.0000 0.7718
404 47 8.1615 18.3754 18.3966 1.2369 0.0000 1.0089
405 47 8.1678 16.3420 20.4463 1.2509 0.0000 0.8841
406 47 10.2018 18.3839 20.4147 1.5068 0.0000 0.9048
407 47 10.2087 16.3350 22.4724 1.0910 0.0000 0.8564
408 47 8.1890 18.3861 22.4674 1.1066 0.0000 0.7725
409 47 8.1801 20.4330 0.0115 1.5098 0.0000 0.9745
410 47 10.2006 22.4495 0.0019 1.2791 0.0000 0.9428
411 47 10.2104 20.4259 2.0423 1.0886 0.0000 0.9319
412 47 8.1839 22.4606 2.0299 1.1401 0.0000 0.8830
413 47 8.1546 20.4367 4.0804 1.1654 0.0000 0.7864
414 47 10.2189 22.4662 4.0901 1.0378 0.0000 1.0184
415 47 10.2226 20.4189 6.1290 1.1101 0.0000 0.8082
416 47 8.1786 22.4718 6.1300 1.0404 0.0000 0.8941
417 47 8.1885 20.4145 8.1874 1.4875 0.0000 0.8549
418 47 10.2394 22.4706 8.1841 1.1240 0.0000 1.0317
419 47 10.2196 20.4379 10.2182 1.3445 0.0000 0.8588
420 47 8.1743 22.4796 10.2272 1.3609 0.0000 0.9045
421 47 8.1575 20.4418 12.2476 1.3625 0.0000 0.8399
422 47 10.2284 22.4611 12.2506 1.1219 0.0000 0.9494
423 47 10.2136 20.4440 14.2821 1.2262 0.0000 0.9232
424 47 8.1626 22.4632 14.2940 1.3143 0.0000 0.8385
425 47 8.1717 20.4316 16.3523 1.4105 0.0000 0.9695
426 47 10.2131 22.4652 16.3283 1.4814 0.0000 0.9268
427 47 10.2208 20.4551 18.3878 1.1400 0.0000 1.0128
428 47 8.1771 22.4928 18.3992 1.3520 0.0000 0.7810
429 47 8.1650 20.4372 20.4211 1.1116 0.0000 0.7717
430 47 10.2041 22.4597 20.4197 1.1283 0.0000 0.8137
431 47 10.2100 20.4463 22.4636 1.0891 0.0000 0.8944
432 47 8.1686 22.4803 22.4769 1.0187 0.0000 0.9048
433 47 12.2667 -0.0010 -0.0079 1.0408 0.0000 0.9653
434 47 14.2894 2.0505 0.0162 1.4049 0.0000 0.7971
435 47 14.3156 -0.0089 2.0481 1.3374 0.0000 0.8738
436 47 12.2716 2.0401 2.0415 1.0239 0.0000 1.0041
437 47 12.2662 -0.0052 4.0922 1.3686 0.0000 0.9951
438 47 14.3187 2.0377 4.1057 1.2779 0.0000 0.8493
439 47 14.3004 0.0007 6.1268 1.3018 0.0000 0.9946
440 47 12.2403 2.0430 6.1289 1.4010 0.0000 0.9052
441 47 12.2513 -0.0100 8.1562 1.1611 0.0000 0.9753
442 47 14.2983 2.0346 8.1658 1.1202 0.0000 0.9786
443 47 14.3276 0.0160 10.2115 1.0994 0.0000 1.0295
444 47 12.2480 2.0350 10.2251 1.0283 0.0000 0.8695
445 47 12.2546 -0.0052 12.2511 1.3222 0.0000 0.8121
446 47 14.3009 2.0349 12.2671 1.2145 0.0000 0.7940
447 47 14.3000 0.0025 14.2990 1.4685 0.0000 0.8292
448 47 12.2489 2.0403 14.2994 1.4636 0.0000 0.9881
449 47 12.2625 0.0009 16.3344 1.3171 0.0000 0.9586
450 47 14.2838 2.0306 16.3491 1.4902 0.0000 0.9839
451 47 14.3080 -0.0025 18.3832 1.4388 0.0000 0.8645
452 47 12.2541 2.0473 18.3953 1.3467 0.0000 0.9829
453 47 12.2568 -0.0002 20.4309 1.4788 0.0000 0.7914
454 47 14.3065 2.0348 20.3983 1.0168 0.0000 0.9463
455 47 14.3085 -0.0089 22.4585 1.3636 0.0000 0.8833
456 47 12.2659 2.0357 22.4751 1.1883 0.0000 0.9384
457 47 12.2732 4.0798 0.0098 1.0161 0.0000 0.9495
458 47 14.3269 6.1292 0.0057 1.2370 0.0000 0.9269
459 47 14.3020 4.0959 2.0399 1.3551 0.0000 0.8989
460 47 12.2413 6.1168 2.0445 1.3725 0.0000 1.0175
461 47 12.2643 4.0900 4.0995 1.3269 0.0000 0.7831
462 47 14.2993 6.1335 4.0960 1.5014 0.0000 0.7915
463 47 14.2899 4.0781 6.1431 1.1970 0.0000 0.9208
464 47 12.2592 6.1225 6.1271 1.2359 0.0000 0.8590
465 47 12.2540 4.0890 8.1670 1.2411 0.0000 0.9929
466 47 14.2851 6.1326 8.1577 1.2137 0.0000 0.9122
467 47 14.2985 4.0791 10.2205 1.4775 0.0000 0.8820
468 47 12.2687 6.1188 10.2289 1.0833 0.0000 0.8742
469 47 12.2473 4.0780 12.2721 1.2188 0.0000 0.9116
470 47 14.3061 6.1018 12.2648 1.3620 0.0000 0.7980
471 47 14.2814 4.0857 14.3058 1.0397 0.0000 0.8497
472 47 12.2587 6.1318 14.2950 1.1605 0.0000 0.7873
473 47 12.2721 4.1023 16.3563 1.1925 0.0000 1.0340
474 47 14.2959 6.1265 16.3417 1.3189 0.0000 0.8846
475 47 14.3005 4.0829 18.3818 1.1739 0.0000 1.0373
476 47 12.2737 6.1328 18.3829 1.1879 0.0000 1.0057
477 47 12.2433 4.0883 20.4141 1.2224 0.0000 1.0380
478 47 14.3067 6.1159 20.4246 1.2051 0.0000 0.7706
479 47 14.2998 4.0860 22.4787 1.0918 0.0000 0.8140
480 47 12.2658 6.1383 22.4718 1.0255 0.0000 0.7822
481 47 12.2728 8.1665 0.0149 1.2984 0.0000 0.9057
482 47 14.2950 10.2031 -0.0122 1.3584 0.0000 0.8193
483 47 14.2943 8.1736 2.0400 1.3125 0.0000 0.8793
484 47 12.2506 10.2280 2.0644 1.2492 0.0000 0.9957
485 47 12.2667 8.1738 4.0884 1.1257 0.0000 0.9376
486 47 14.2914 10.2120 4.1128 1.4656 0.0000 0.9553
487 47 14.3119 8.1820 6.1206 1.3707 0.0000 0.8057
488 47 12.2535 10.2158 6.1300 1.3112 0.0000 0.8095
489 47 12.2661 8.1735 8.1816 1.4165 0.0000 0.9438
490 47 14.2869 10.2076 8.1803 1.4096 0.0000 0.8134
491 47 14.3000 8.1717 10.2109 1.2228 0.0000 0.9760
492 47 12.2831 10.2178 10.2108 1.2771 0.0000 0.8118
493 47 12.2515 8.1658 12.2580 1.4095 0.0000 0.8391
494 47 14.3095 10.2203 12.2663 1.2246 0.0000 0.9677
495 47 14.3168 8.1695 14.2973 1.1975 0.0000 1.0283
496 47 12.2562 10.2085 14.3195 1.1751 0.0000 0.8270
497 47 12.2477 8.1634 16.3398 1.2990 0.0000 0.8467
498 47 14.3023 10.2208 16.3419 1.1115 0.0000 0.8012
499 47 14.2953 8.1640 18.3714 1.3824 0.0000 0.7899
500 47 12.2670 10.2040 18.3724 1.3599 0.0000 0.9731
501 47 12.2470 8.1631 20.4382 1.2626 0.0000 0.9949
502 47 14.2858 10.1945 20.4255 1.2040 0.0000 0.7699
503 47 14.3057 8.1825 22.4805 1.3873 0.0000 1.0204
504 47 12.2722 10.2035 22.4629 1.1620 0.0000 0.8792
505 47 12.2591 12.2530 0.0018 1.0649 0.0000 0.7777
506 47 14.2983 14.2862 -0.0172 1.1782 0.0000 0.8725
507 47 14.3173 12.2557 2.0437 1.2499 0.0000 1.0272
508 47 12.2466 14.3146 2.0357 1.2830 0.0000 0.9552
509 47 12.2486 12.2736 4.0952 1.3021 0.0000 0.8007
510 47 14.3026 14.2968 4.0840 1.1879 0.0000 0.8899
511 47 14.3042 12.2629 6.1360 1.2751 0.0000 0.9329
512 47 12.2779 14.2920 6.1246 1.3785 0.0000 0.8501
513 47 12.2519 12.2646 8.1816 1.0182 0.0000 0.9922
514 47 14.3039 14.3003 8.1561 1.1379 0.0000 0.7761
515 47 14.3198 12.2687 10.2150 1.1848 0.0000 0.9793
516 47 12.2488 14.3161 10.2132 1.0872 0.0000 1.0255
517 47 12.2545 12.2483 12.2648 1.3507 0.0000 0.7937
518 47 14.2979 14.3107 12.2606 1.4309 0.0000 0.9021
519 47 14.3050 12.2764 14.2850 1.3727 0.0000 0.9061
520 47 12.2559 14.2864 14.2811 1.3055 0.0000 0.9039
521 47 12.2607 12.2505 16.3436 1.1617 0.0000 0.8522
522 47 14.3132 14.3011 16.3230 1.0536 0.0000 0.8674
523 47 14.2969 12.2640 18.3756 1.1656 0.0000 0.9061
524 47 12.2688 14.2972 18.3815 1.1181 0.0000 0.8549
525 47 12.2595 12.2502 20.4386 1.3333 0.0000 0.9815
526 47 14.3019 14.3051 20.4407 1.2805 0.0000 0.8994
527 47 14.3033 12.2572 22.4775 1.4723 0.0000 0.9610
528 47 12.2428 14.3224 22.4777 1.2983 0.0000 0.7745
529 47 12.2533 16.3564 -0.0039 1.4954 0.0000 0.8497
530 47 14.3082 18.3829 -0.0040 1.2596 0.0000 0.8930
531 47 14.2785 16.3265 2.0458 1.4245 0.0000 0.8655
532 47 12.2690 18.3649 2.0395 1.4971 0.0000 0.8144
533 47 12.2615 16.3584 4.0788 1.4734 0.0000 0.7945
534 47 14.2855 18.3839 4.0967 1.5070 0.0000 1.0351
535 47 14.2923 16.3235 6.1507 1.3365 0.0000 0.9792
536 47 12.2567 18.3819 6.1446 1.0937 0.0000 0.8376
537 47 12.2539 16.3349 8.1726 1.2222 0.0000 0.8979
538 47 14.2882 18.4043 8.1826 1.3123 0.0000 0.7962
539 47 14.3013 16.3329 10.2084 1.2698 0.0000 0.9943
540 47 12.2462 18.3727 10.2213 1.2579 0.0000 0.7905
541 47 12.2542 16.3409 12.2562 1.3842 0.0000 0.9836
542 47 14.2995 18.3921 12.2525 1.4736 0.0000 0.8828
543 47 14.2832 16.3329 14.3067 1.2353 0.0000 1.0319
544 47 12.2653 18.3993 14.2976 1.3002 0.0000 0.9800
545 47 12.2598 16.3467 16.3297 1.4060 0.0000 0.8278
546 47 14.2877 18.3926 16.3598 1.1709 0.0000 0.9102
547 47 14.2763 16.3424 18.3856 1.0967 0.0000 1.0204
548 47 12.2535 18.3954 18.3733 1.0225 0.0000 0.8706
549 47 12.2689 16.3496 20.4277 1.1126 0.0000 0.8260
550 47 14.2994 18.3863 20.4433 1.1054 0.0000 0.9172
551 47 14.2861 16.3359 22.4747 1.2603 0.0000 0.8146
552 47 12.2451 18.3744 22.4612 1.3695 0.0000 0.9376
553 47 12.2751 20.4391 0.0035 1.1911 0.0000 0.9167
554 47 14.3047 22.4744 0.0100 1.1972 0.0000 0.8760
555 47 14.3029 20.4132 2.0292 1.2000 0.0000 1.0209
556 47 12.2482 22.4717 2.0511 1.4936 0.0000 0.8334
557 47 12.2652 20.4425 4.0748 1.1047 0.0000 0.9037
558 47 14.3025 22.4767 4.0767 1.4131 0.0000 0.9594
559 47 14.2975 20.4321 6.1324 1.4373 0.0000 0.8372
560 47 12.2713 22.4882 6.1235 1.2562 0.0000 0.9097
561 47 12.2621 20.4179 8.1726 1.4654 0.0000 0.9555
562 47 14.3031 22.4653 8.1663 1.1476 0.0000 0.9666
563 47 14.3095 20.4267 10.2106 1.0627 0.0000 1.0196
564 47 12.2769 22.4672 10.2134 1.1390 0.0000 0.9807
565 47 12.2584 20.4068 12.2671 1.0984 0.0000 0.9274
566 47 14.2977 22.4618 12.2546 1.0604 0.0000 0.9401
567 47 14.3132 20.4299 14.3123 1.0738 0.0000 0.8685
568 47 12.2599 22.4781 14.2842 1.0528 0.0000 0.9735
569 47 12.2457 20.4359 16.3403 1.1652 0.0000 0.9736
570 47 14.3140 22.4847 16.3332 1.0234 0.0000 0.9498
571 47 14.2874 20.4281 18.3780 1.1175 0.0000 1.0319
572 47 12.2451 22.4787 18.4007 1.3791 0.0000 0.9857
573 47 12.2618 20.4266 20.4181 1.4937 0.0000 0.8760
574 47 14.3082 22.4794 20.4144 1.2983 0.0000 0.9173
575 47 14.2943 20.4151 22.4689 1.1532 0.0000 1.0312
576 47 12.2364 22.4814 22.4691 1.2790 0.0000 0.7701
577 47 16.3452 0.0202 -0.0102 1.4571 0.0000 0.9304
578 47 18.4018 2.0295 0.0096 1.4012 0.0000 0.8373
579 47 18.3915 0.0016 2.0489 1.1757 0.0000 0.9243
580 47 16.3376 2.0691 2.0195 1.0445 0.0000 0.7931
581 47 16.3467 0.0010 4.0849 1.4632 0.0000 0.9698
582 47 18.3709 2.0474 4.0892 1.1989 0.0000 0.9217
583 47 18.4005 -0.0188 6.1328 1.4644 0.0000 0.9857
584 47 16.3443 2.0373 6.1184 1.4484 0.0000 0.8557
585 47 16.3412 -0.0116 8.1862 1.1416 0.0000 0.8561
586 47 18.3796 2.0316 8.1690 1.1098 0.0000 0.9173
587 47 18.3986 -0.0015 10.2054 1.1923 0.0000 0.9700
588 47 16.3350 2.0405 10.2154 1.3224 0.0000 0.8118
589 47 16.3778 0.0100 12.2625 1.2266 0.0000 0.8423
590 47 18.3948 2.0381 12.2747 1.2709 0.0000 0.8727
591 47 18.3926 -0.0245 14.2998 1.3582 0.0000 0.9503