ITEM: TIMESTEP
0
ITEM: NUMBER OF ATOMS
1024
ITEM: BOX BOUNDS pp pp pp
0.0 25.1760
0.0 25.1760
0.0 25.1760
ITEM: ATOMS id type x y z error strain stiffness
1 42 -0.0127 -0.0109 0.0375 5.2752 0.0000 5.9981
2 42 1.5657 1.5774 1.6064 4.2010 0.0000 6.1661
3 42 0.0137 -0.0129 3.1288 4.0459 0.0000 5.2903
4 42 1.5748 1.5935 4.7431 4.8509 0.0000 5.8700
5 42 0.0471 0.0122 6.2673 4.7647 0.0000 5.2110
6 42 1.5751 1.5769 7.8097 4.2121 0.0000 6.4590
7 42 -0.0539 -0.0214 9.4369 4.3391 0.0000 6.3715
8 42 1.5427 1.5735 11.0377 5.6151 0.0000 5.7466
9 42 0.0099 0.0211 12.5918 4.4022 0.0000 5.8451
10 42 1.5455 1.5201 14.1158 4.9939 0.0000 5.5093
11 42 0.0140 -0.0041 15.7403 3.9958 0.0000 5.4421
12 42 1.5774 1.5300 17.2754 5.7619 0.0000 6.2784
13 42 -0.0341 0.0559 18.8850 4.2143 0.0000 6.0653
14 42 1.5445 1.6087 20.4729 4.4843 0.0000 5.4808
15 42 -0.0243 0.0073 21.9914 5.0073 0.0000 5.0021
16 42 1.5670 1.5612 23.5645 5.1171 0.0000 5.8155
17 42 0.0254 3.1825 -0.0053 5.6978 0.0000 5.5900
18 42 1.5856 4.7113 1.5768 5.0957 0.0000 6.4374
19 42 0.0006 3.1421 3.1772 4.1843 0.0000 6.4454
20 42 1.5536 4.7197 4.6984 4.0494 0.0000 5.0762
21 42 0.0158 3.1356 6.3291 4.9153 0.0000 6.2837
22 42 1.5928 4.7276 7.8609 5.7337 0.0000 5.5472
23 42 -0.0398 3.1755 9.4541 4.4744 0.0000 5.6893
24 42 1.5341 4.7598 11.0372 4.0624 0.0000 5.6147
25 42 -0.0096 3.1526 12.5771 5.1023 0.0000 5.8927
26 42 1.6065 4.7710 14.1874 4.7039 0.0000 5.4261
27 42 0.0216 3.1785 15.6792 4.3189 0.0000 6.2526
28 42 1.6390 4.7422 17.2749 4.5588 0.0000 6.2368
29 42 0.0204 3.1096 18.9175 5.3208 0.0000 5.0199
30 42 1.6548 4.6888 20.4899 5.7801 0.0000 5.3382
31 42 0.0186 3.1336 22.0479 5.4439 0.0000 5.7622
32 42 1.6076 4.7259 23.5927 5.0278 0.0000 6.4002
33 42 0.0160 6.2732 0.0292 5.7750 0.0000 5.2657
34 42 1.5866 7.8900 1.5509 4.7615 0.0000 5.9867
35 42 0.0158 6.2763 3.1653 5.7299 0.0000 4.8478
36 42 1.5882 7.8470 4.7592 5.3289 0.0000 4.9312
37 42 0.0331 6.2942 6.2970 4.4330 0.0000 5.7912
38 42 1.6191 7.8606 7.9314 5.4493 0.0000 5.8257
39 42 0.0216 6.3233 9.4089 4.7084 0.0000 6.3486
40 42 1.6262 7.8453 11.0100 4.5201 0.0000 6.4461
41 42 -0.0299 6.3368 12.6204 3.8700 0.0000 5.2271
42 42 1.5343 7.8640 14.1890 4.9396 0.0000 5.8022
43 42 -0.0371 6.2643 15.7452 5.4728 0.0000 5.3925
44 42 1.5666 7.8944 17.3811 4.9834 0.0000 5.7267
45 42 -0.0500 6.2412 18.8222 5.4338 0.0000 5.6412
46 42 1.5979 7.8761 20.4252 5.0047 0.0000 6.4701
47 42 0.0163 6.2850 22.0303 4.4908 0.0000 5.2061
48 42 1.6142 7.8832 23.5816 4.2184 0.0000 5.0701
49 42 0.0129 9.4391 -0.0135 5.0348 0.0000 5.2793
50 42 1.6030 11.0268 1.4711 5.6468 0.0000 5.2433
51 42 -0.0206 9.4600 3.1562 5.2022 0.0000 6.3357
52 42 1.6397 11.0109 4.6882 4.1061 0.0000 5.6382
53 42 0.0417 9.4327 6.3100 5.2718 0.0000 5.9350
54 42 1.5888 10.9574 7.8978 5.1263 0.0000 5.0373
55 42 0.0325 9.4506 9.4520 4.2943 0.0000 5.4040
56 42 1.6010 11.0144 10.9977 4.9850 0.0000 6.3130
57 42 -0.0005 9.4251 12.5952 5.4778 0.0000 5.9533
58 42 1.5719 10.9793 14.1886 4.3347 0.0000 6.3139
59 42 -0.0165 9.4667 15.7546 4.8186 0.0000 6.2223
60 42 1.5173 10.9436 17.3486 4.5717 0.0000 5.0673
61 42 0.0091 9.4915 18.9045 5.1814 0.0000 5.5006
62 42 1.6231 11.0384 20.4242 5.6324 0.0000 5.3302
63 42 -0.0209 9.4410 22.0622 4.1406 0.0000 6.2126
64 42 1.5981 11.0145 23.6924 4.3569 0.0000 5.8929
65 42 -0.0207 12.5722 0.0380 4.1379 0.0000 5.1259
66 42 1.5054 14.1389 1.5272 5.0591 0.0000 5.2273
67 42 0.0079 12.5496 3.0927 4.5249 0.0000 6.0695
68 42 1.6183 14.1645 4.6902 5.6352 0.0000 5.3149
69 42 -0.0067 12.5756 6.2629 5.3467 0.0000 4.9590
70 42 1.5944 14.1565 7.8925 5.3472 0.0000 5.9258
71 42 0.0358 12.6102 9.4254 5.6992 0.0000 4.7939
72 42 1.5362 14.1381 11.0194 4.6165 0.0000 5.3648
73 42 0.0120 12.5567 12.6057 4.5729 0.0000 5.4497
74 42 1.5703 14.1831 14.1106 4.3952 0.0000 5.8297
75 42 0.0341 12.5599 15.7559 5.7795 0.0000 4.8516
76 42 1.6140 14.1837 17.3389 5.7707 0.0000 5.2413
77 42 -0.0176 12.5480 18.9184 5.3736 0.0000 5.1372
78 42 1.5912 14.1213 20.3977 5.1709 0.0000 5.3711
79 42 -0.0105 12.5911 22.0164 4.8931 0.0000 6.0299
80 42 1.5497 14.1767 23.6084 4.4070 0.0000 5.6847
81 42 0.0221 15.7552 0.0180 5.5398 0.0000 5.4616
82 42 1.5756 17.2788 1.5455 5.5132 0.0000 5.5315
83 42 0.0230 15.7558 3.1052 5.0723 0.0000 6.0384
84 42 1.6580 17.2877 4.7455 5.0386 0.0000 6.4397
85 42 -0.0077 15.7329 6.2782 5.3854 0.0000 6.3112
86 42 1.5581 17.3098 7.8612 5.0992 0.0000 5.0743
87 42 0.0371 15.7101 9.4287 4.3405 0.0000 5.7848
88 42 1.6234 17.3314 11.0603 4.1575 0.0000 5.7348
89 42 -0.0438 15.7271 12.6069 5.0171 0.0000 6.1677
90 42 1.5921 17.3200 14.2368 3.8931 0.0000 5.0090
91 42 -0.0100 15.7395 15.7279 5.6245 0.0000 5.8494
92 42 1.5615 17.3094 17.3485 4.3977 0.0000 5.0602
93 42 0.0166 15.7697 18.9103 4.8222 0.0000 6.0288
94 42 1.5390 17.3103 20.4610 4.1403 0.0000 5.5679
95 42 0.0055 15.7105 22.0624 5.7775 0.0000 6.4729
96 42 1.5965 17.3551 23.5936 4.3244 0.0000 5.9946
97 42 0.0230 18.9034 -0.0003 5.3814 0.0000 5.5631
98 42 1.5320 20.4778 1.6464 5.7398 0.0000 6.0376
99 42 0.0139 18.9067 3.1100 5.0192 0.0000 6.3552
100 42 1.6100 20.4540 4.7162 5.3325 0.0000 5.6237
101 42 -0.0143 18.8978 6.2479 5.4998 0.0000 4.9107
102 42 1.5150 20.4048 7.8477 4.2178 0.0000 5.2573
103 42 -0.0582 18.8439 9.4624 4.0730 0.0000 5.3328
104 42 1.5490 20.4569 10.9884 4.7771 0.0000 6.1959
105 42 -0.0322 18.8696 12.6125 5.5613 0.0000 5.8091
106 42 1.5701 20.4438 14.1265 4.4749 0.0000 4.8097
107 42 0.0246 18.9476 15.7010 4.4771 0.0000 5.6773
108 42 1.5569 20.4792 17.2560 5.5165 0.0000 6.3984
109 42 0.0212 18.9264 18.8583 4.1407 0.0000 5.7317
110 42 1.6081 20.4415 20.4260 4.8022 0.0000 5.1707
111 42 -0.0133 18.9191 22.0373 5.0699 0.0000 5.5893
112 42 1.5649 20.4091 23.6452 4.0446 0.0000 5.3482
113 42 -0.0164 22.0115 0.0058 4.1325 0.0000 5.4664
114 42 1.5085 23.5929 1.5936 5.6100 0.0000 5.8673
115 42 0.0070 22.0371 3.1463 4.3051 0.0000 6.3634
116 42 1.5694 23.5945 4.7028 4.0418 0.0000 5.3130
117 42 0.0272 22.0216 6.2973 5.7641 0.0000 5.6140
118 42 1.5747 23.5905 7.8640 4.5594 0.0000 5.0505
119 42 0.0610 21.9911 9.4006 3.8731 0.0000 5.0467
120 42 1.5944 23.5954 11.0036 4.6071 0.0000 5.7535
121 42 0.0303 22.0384 12.6371 5.3783 0.0000 5.8841
122 42 1.5790 23.6305 14.1947 4.1732 0.0000 5.3116
123 42 0.0307 22.0022 15.7027 4.1878 0.0000 6.3071
124 42 1.6276 23.6563 17.2972 4.2857 0.0000 4.8419
125 42 -0.0112 22.0254 18.7950 5.0023 0.0000 4.9549
126 42 1.5529 23.6146 20.4610 5.6494 0.0000 5.8842
127 42 -0.0236 22.0114 22.0082 4.2023 0.0000 6.2223
128 42 1.6114 23.6261 23.5830 5.4208 0.0000 5.2434
129 42 3.1041 -0.0332 0.0056 5.2912 0.0000 5.5368
130 42 4.7541 1.5968 1.5745 4.5390 0.0000 5.4995
131 42 3.1603 -0.0431 3.1518 4.0813 0.0000 5.2398
132 42 4.7160 1.5445 4.7617 4.3296 0.0000 5.3770
133 42 3.1349 0.0251 6.3333 4.9543 0.0000 5.0045
134 42 4.7145 1.5673 7.8596 4.7578 0.0000 5.2748
135 42 3.1266 -0.0390 9.4193 4.1744 0.0000 6.0757
136 42 4.7060 1.5706 11.0446 5.4432 0.0000 5.2899
137 42 3.1206 0.0561 12.5782 5.6516 0.0000 4.9177
138 42 4.7033 1.5712 14.1739 5.6103 0.0000 5.8751
139 42 3.1296 0.0762 15.7036 4.5840 0.0000 5.1690
140 42 4.6902 1.5156 17.3284 5.1716 0.0000 4.9476
141 42 3.1568 0.0221 18.8814 4.0243 0.0000 4.7898
142 42 4.7855 1.5611 20.4125 5.1828 0.0000 5.2786
143 42 3.1770 -0.0285 22.0335 4.8134 0.0000 4.8117
144 42 4.7316 1.5118 23.5161 5.2308 0.0000 5.8916
145 42 3.1637 3.1148 -0.0061 5.2291 0.0000 5.2056
146 42 4.7138 4.7456 1.5518 5.4414 0.0000 5.7605
147 42 3.1277 3.1589 3.1413 4.9543 0.0000 5.5781
148 42 4.7475 4.6670 4.7203 4.5251 0.0000 4.8637
149 42 3.1663 3.1844 6.3039 4.2350 0.0000 5.9748
150 42 4.7071 4.6984 7.8811 4.1587 0.0000 6.3722
151 42 3.1627 3.1026 9.4587 4.3692 0.0000 6.1274
152 42 4.7158 4.7665 11.0446 4.7527 0.0000 5.8085
153 42 3.1231 3.1377 12.6020 4.1273 0.0000 5.9509
154 42 4.7196 4.7558 14.1597 5.3299 0.0000 6.0675
155 42 3.1642 3.1537 15.7463 4.7200 0.0000 6.1968
156 42 4.7224 4.7021 17.2925 4.6499 0.0000 6.0918
157 42 3.1114 3.1558 18.9119 4.5577 0.0000 4.9241
158 42 4.7546 4.7087 20.4350 5.0323 0.0000 5.6218
159 42 3.1394 3.1543 21.9989 4.6229 0.0000 5.4551
160 42 4.6840 4.6872 23.5902 4.8621 0.0000 4.8383
161 42 3.1398 6.3345 -0.0321 5.4257 0.0000 5.9462
162 42 4.7205 7.8392 1.5883 5.7194 0.0000 5.5090
163 42 3.1440 6.2556 3.1027 5.3190 0.0000 5.4939
164 42 4.7378 7.9341 4.7352 5.7361 0.0000 5.2138
165 42 3.1375 6.2328 6.2960 4.8760 0.0000 6.4686
166 42 4.7293 7.9172 7.8608 5.2734 0.0000 5.6828
167 42 3.1581 6.2513 9.3785 3.9796 0.0000 5.4206
168 42 4.6922 7.8680 11.0166 4.7950 0.0000 5.7004
169 42 3.1792 6.2350 12.6259 4.8746 0.0000 5.3123
170 42 4.6699 7.8904 14.1563 5.5213 0.0000 4.8362
171 42 3.2014 6.3070 15.7077 5.0311 0.0000 5.7723
172 42 4.6477 7.8693 17.3062 5.4932 0.0000 5.2008
173 42 3.1097 6.2855 18.8728 4.6637 0.0000 4.8473
174 42 4.7195 7.8627 20.4427 4.2442 0.0000 6.4367
175 42 3.1363 6.3866 22.0390 5.7771 0.0000 5.0693
176 42 4.7428 7.8771 23.5468 5.6006 0.0000 6.0026
177 42 3.1430 9.4261 0.0103 4.1979 0.0000 5.8025
178 42 4.7171 11.0004 1.5724 4.9916 0.0000 5.0195
179 42 3.1266 9.4269 3.1348 4.3218 0.0000 5.2730
180 42 4.6904 10.9960 4.6999 5.1210 0.0000 5.6081
181 42 3.1683 9.4148 6.2865 4.5635 0.0000 5.9867
182 42 4.6969 10.9978 7.8626 5.5758 0.0000 5.6442
183 42 3.1097 9.4294 9.4606 4.4154 0.0000 5.3798
184 42 4.7750 10.9737 10.9789 4.6458 0.0000 5.2192
185 42 3.1862 9.4304 12.5371 5.0695 0.0000 5.8721
186 42 4.7102 11.0269 14.1363 4.0086 0.0000 5.1191
187 42 3.1427 9.4764 15.7746 4.0158 0.0000 5.3346
188 42 4.7214 10.9647 17.3287 4.5690 0.0000 5.1858
189 42 3.1570 9.4459 18.8130 5.6132 0.0000 5.8087
190 42 4.7319 10.9623 20.4144 4.5584 0.0000 5.6549
191 42 3.1484 9.3653 22.0290 4.4209 0.0000 6.4650
192 42 4.7662 11.0326 23.5901 5.2800 0.0000 5.5543
193 42 3.1380 12.5553 -0.0051 5.2010 0.0000 5.3649
194 42 4.7551 14.1588 1.5641 5.6008 0.0000 6.3984
195 42 3.1099 12.6623 3.1480 4.5125 0.0000 5.3310
196 42 4.7365 14.1603 4.7205 4.7893 0.0000 6.1861
197 42 3.0635 12.6275 6.3390 5.5402 0.0000 5.5189
198 42 4.7449 14.1794 7.8324 5.6373 0.0000 5.9696
199 42 3.1389 12.5662 9.4959 4.2124 0.0000 5.2648
200 42 4.7561 14.1802 11.0273 4.3782 0.0000 5.4397
201 42 3.0819 12.6243 12.5926 4.5617 0.0000 4.8972
202 42 4.7127 14.1505 14.1788 4.9886 0.0000 5.6264
203 42 3.1100 12.6175 15.6801 5.3079 0.0000 6.3166
204 42 4.7938 14.1621 17.3178 3.8949 0.0000 6.3228
205 42 3.1588 12.6114 18.8935 5.3447 0.0000 5.3439
206 42 4.6919 14.1262 20.4197 4.1819 0.0000 5.1684
207 42 3.0794 12.5985 22.0571 5.2124 0.0000 6.3839
208 42 4.6960 14.1084 23.6081 5.4315 0.0000 5.3409
209 42 3.1332 15.7239 -0.0298 4.8576 0.0000 5.5082
210 42 4.7009 17.2948 1.5785 4.1222 0.0000 5.8586
211 42 3.1741 15.7673 3.1485 5.5837 0.0000 5.4822
212 42 4.7532 17.2992 4.7453 4.3717 0.0000 5.2427
213 42 3.2096 15.7283 6.3185 4.1163 0.0000 5.6801
214 42 4.7036 17.3223 7.8980 5.0325 0.0000 5.7269
215 42 3.1892 15.7260 9.4542 5.5954 0.0000 5.9960
216 42 4.7064 17.2975 11.0378 4.6280 0.0000 5.8425
217 42 3.1709 15.7668 12.6082 4.0425 0.0000 6.0758
218 42 4.7326 17.3716 14.1828 3.9453 0.0000 6.1543
219 42 3.1426 15.7862 15.7191 4.5175 0.0000 5.2089
220 42 4.7393 17.3212 17.2569 3.9787 0.0000 6.0498
221 42 3.1321 15.7261 18.8556 4.8660 0.0000 6.0251
222 42 4.7353 17.2850 20.4289 4.4358 0.0000 5.7207
223 42 3.1741 15.7575 22.0378 4.8621 0.0000 5.5340
224 42 4.7492 17.2839 23.6123 4.8115 0.0000 5.3939
225 42 3.1602 18.9389 0.0607 4.8897 0.0000 5.1579
226 42 4.7050 20.4319 1.5568 4.4872 0.0000 5.8318
227 42 3.1635 18.8775 3.1200 4.8325 0.0000 5.3360
228 42 4.7109 20.4910 4.6930 5.6526 0.0000 5.3310
229 42 3.1523 18.9096 6.3705 5.5813 0.0000 6.1273
230 42 4.6739 20.4977 7.8511 4.1854 0.0000 4.8756
231 42 3.1274 18.9358 9.4685 4.4313 0.0000 5.9289
232 42 4.7432 20.4358 11.0167 5.7236 0.0000 5.7067
233 42 3.1818 18.9006 12.6308 5.6518 0.0000 5.7231
234 42 4.7068 20.4599 14.1162 5.6536 0.0000 5.4474
235 42 3.1872 18.8927 15.7456 4.3221 0.0000 5.5563
236 42 4.7358 20.4593 17.3282 4.7064 0.0000 6.0664
237 42 3.1491 18.8563 18.9300 4.9517 0.0000 6.0129
238 42 4.6747 20.4619 20.4541 4.7967 0.0000 6.0327
239 42 3.1338 18.8425 22.0687 4.8939 0.0000 4.8201
240 42 4.7531 20.4247 23.5429 4.6965 0.0000 5.4785
241 42 3.1234 22.0704 0.0327 5.0028 0.0000 5.2319
242 42 4.7582 23.6017 1.5783 5.0673 0.0000 6.3654
243 42 3.1341 22.0162 3.1636 5.0389 0.0000 6.4708
244 42 4.7206 23.6243 4.7451 5.3675 0.0000 5.9128
245 42 3.1382 22.0143 6.2853 5.1714 0.0000 6.3065
246 42 4.7696 23.6222 7.8677 4.0551 0.0000 6.2410
247 42 3.1463 22.0757 9.4599 5.5116 0.0000 4.8623
248 42 4.7384 23.6381 10.9689 5.6726 0.0000 6.3103
249 42 3.1213 22.0162 12.5789 4.4731 0.0000 6.0496
250 42 4.7220 23.6307 14.1592 5.5474 0.0000 5.0999
251 42 3.1376 22.0264 15.7019 4.2481 0.0000 6.4400
252 42 4.6989 23.6637 17.3106 5.4007 0.0000 6.2787
253 42 3.1458 21.9623 18.8754 4.6389 0.0000 5.6476
254 42 4.7649 23.5955 20.4320 5.6352 0.0000 5.0296
255 42 3.0712 22.0353 22.0421 5.0372 0.0000 4.8742
256 42 4.7142 23.5608 23.5923 5.4833 0.0000 6.3625
257 42 6.3212 0.0049 -0.0074 5.0946 0.0000 5.5412
258 42 7.9122 1.6136 1.5779 5.6735 0.0000 6.2988
259 42 6.2563 0.0111 3.1066 4.1752 0.0000 5.2990
260 42 7.8132 1.5705 4.7256 3.9972 0.0000 5.9534
261 42 6.3082 -0.0134 6.2905 4.9285 0.0000 5.6928
262 42 7.8983 1.5647 7.8476 4.7973 0.0000 6.2829
263 42 6.3420 0.0177 9.5097 5.7489 0.0000 5.4230
264 42 7.8514 1.5275 10.9648 5.5755 0.0000 5.0681
265 42 6.3090 -0.0255 12.5759 5.1128 0.0000 5.2391
266 42 7.9031 1.5624 14.1632 5.7116 0.0000 5.8341
267 42 6.2863 -0.0039 15.6953 3.9196 0.0000 5.9733
268 42 7.8724 1.5706 17.3205 4.3850 0.0000 5.8451
269 42 6.2503 0.0289 18.8397 4.2977 0.0000 6.4508
270 42 7.8892 1.5726 20.4846 4.3189 0.0000 6.1654
271 42 6.2518 -0.0392 22.0234 3.8693 0.0000 5.1267
272 42 7.9164 1.5960 23.5827 5.6884 0.0000 5.2988
273 42 6.3197 3.1282 -0.0163 5.4009 0.0000 5.5252
274 42 7.9441 4.7539 1.5843 5.6783 0.0000 5.6897
275 42 6.2716 3.1085 3.1319 5.1068 0.0000 5.9512
276 42 7.8292 4.7751 4.6827 4.1510 0.0000 5.9616
277 42 6.3462 3.1248 6.3389 5.2467 0.0000 4.8066
278 42 7.8553 4.6998 7.8889 5.2589 0.0000 4.8397
279 42 6.2700 3.1157 9.4986 5.6033 0.0000 6.2767
280 42 7.7876 4.7556 10.9774 5.3526 0.0000 5.1559
281 42 6.3063 3.1878 12.5521 4.2855 0.0000 5.3449
282 42 7.8843 4.7370 14.1898 5.4141 0.0000 5.9474
283 42 6.3129 3.1419 15.7630 5.7568 0.0000 5.1261
284 42 7.8791 4.7343 17.2599 5.3735 0.0000 5.4040
285 42 6.3063 3.1198 18.9195 3.8848 0.0000 5.4653
286 42 7.8809 4.7044 20.3937 5.4131 0.0000 4.9362
287 42 6.3063 3.1040 22.0527 4.4775 0.0000 6.0580
288 42 7.9001 4.6806 23.5860 4.3685 0.0000 6.3857
289 42 6.2809 6.3213 -0.0037 5.4956 0.0000 5.2806
290 42 7.8839 7.8539 1.6107 4.2218 0.0000 6.2770
291 42 6.2565 6.3046 3.0842 4.0712 0.0000 5.8245
292 42 7.9028 7.8950 4.7490 4.6159 0.0000 5.6923
293 42 6.2899 6.2715 6.3203 5.4469 0.0000 5.6750
294 42 7.8809 7.8415 7.8438 5.5579 0.0000 4.9674
295 42 6.2380 6.2923 9.4390 5.5382 0.0000 6.2262
296 42 7.8846 7.8683 11.0494 4.7969 0.0000 6.2414
297 42 6.2941 6.2847 12.5981 4.0531 0.0000 5.0670
298 42 7.9073 7.8523 14.1618 3.9357 0.0000 6.3416
299 42 6.2769 6.2699 15.7488 5.1689 0.0000 5.3280
300 42 7.8911 7.8833 17.2924 5.3458 0.0000 5.7251
301 42 6.2568 6.2775 18.9122 4.7486 0.0000 5.1766
302 42 7.9058 7.9248 20.4591 5.0590 0.0000 5.2850
303 42 6.2841 6.3344 21.9647 4.1974 0.0000 5.7068
304 42 7.9066 7.8780 23.5693 4.5566 0.0000 4.9452
305 42 6.2610 9.4510 0.0139 4.1150 0.0000 5.7197
306 42 7.8558 11.0193 1.6043 4.6174 0.0000 5.2624
307 42 6.2960 9.5217 3.1892 4.7848 0.0000 5.4947
308 42 7.8726 11.0207 4.7255 5.5710 0.0000 6.4532
309 42 6.2713 9.4691 6.2743 4.2896 0.0000 5.5859
310 42 7.8260 10.9886 7.8857 5.6257 0.0000 4.8668
311 42 6.3493 9.4638 9.4454 4.7966 0.0000 5.9368
312 42 7.8374 11.0220 11.0433 4.7217 0.0000 5.7210
313 42 6.2946 9.4022 12.5846 4.8059 0.0000 5.9835
314 42 7.8766 10.9744 14.1268 4.9335 0.0000 4.8155
315 42 6.2679 9.4092 15.7326 4.9923 0.0000 5.0841
316 42 7.8666 11.0435 17.3165 5.7889 0.0000 6.4327
317 42 6.2905 9.4365 18.8989 4.2255 0.0000 4.8959
318 42 7.8788 11.0714 20.4323 4.6146 0.0000 5.4352
319 42 6.3328 9.4479 21.9669 5.2138 0.0000 5.1057
320 42 7.9263 10.9997 23.6506 5.7535 0.0000 5.0195
321 42 6.3313 12.5949 0.0119 4.1840 0.0000 5.2525
322 42 7.8572 14.1842 1.6238 5.3388 0.0000 5.2677
323 42 6.3281 12.6191 3.2020 4.9546 0.0000 6.2202
324 42 7.8211 14.1442 4.7174 4.9990 0.0000 6.2936
325 42 6.2765 12.5998 6.2948 4.1203 0.0000 6.4414
326 42 7.9060 14.2154 7.7922 4.0182 0.0000 6.1034
327 42 6.2881 12.6170 9.4213 4.7581 0.0000 6.1877
328 42 7.8651 14.1724 11.0682 4.6241 0.0000 6.2867
329 42 6.3032 12.6209 12.5617 4.7046 0.0000 5.3449
330 42 7.8454 14.1706 14.1713 4.9970 0.0000 6.0844
331 42 6.2674 12.5672 15.6950 4.6762 0.0000 5.0381
332 42 7.9061 14.1466 17.3155 5.1703 0.0000 6.2986
333 42 6.2840 12.5095 18.8901 4.4791 0.0000 5.2235
334 42 7.9424 14.1363 20.4249 5.6349 0.0000 6.3890
335 42 6.2964 12.6324 22.0081 5.4976 0.0000 4.9335
336 42 7.8642 14.1287 23.6653 5.1277 0.0000 4.9704
337 42 6.2845 15.7002 -0.0130 4.2542 0.0000 4.9976
338 42 7.8517 17.2601 1.5750 4.5844 0.0000 5.7550
339 42 6.2850 15.7504 3.1658 4.4026 0.0000 5.8602
340 42 7.8945 17.2783 4.7126 4.9863 0.0000 5.1320
341 42 6.3348 15.7460 6.2860 4.4047 0.0000 6.3266
342 42 7.9108 17.3067 7.8272 5.1815 0.0000 5.9889
343 42 6.2924 15.7317 9.4519 4.6064 0.0000 6.3741
344 42 7.8250 17.2390 11.0214 4.7052 0.0000 5.1536
345 42 6.2779 15.7402 12.5357 5.0568 0.0000 5.6997
346 42 7.8179 17.3615 14.1274 4.2762 0.0000 5.5204
347 42 6.3009 15.7301 15.6986 4.9336 0.0000 5.1868
348 42 7.8852 17.3770 17.3216 5.2427 0.0000 6.0476
349 42 6.3291 15.7710 18.8712 4.7736 0.0000 5.9437
350 42 7.8609 17.3494 20.4495 5.2124 0.0000 5.6851
351 42 6.3061 15.7494 22.0888 5.7795 0.0000 5.8302
352 42 7.9035 17.2786 23.5600 4.1428 0.0000 6.4471
353 42 6.3031 18.8433 -0.0144 4.6625 0.0000 5.1607
354 42 7.8860 20.4461 1.5760 4.9312 0.0000 4.8118
355 42 6.3062 18.8650 3.1030 5.5842 0.0000 5.6739
356 42 7.9134 20.4890 4.7163 4.1858 0.0000 5.3863
357 42 6.2540 18.8880 6.2865 5.1111 0.0000 6.0906
358 42 7.8998 20.4751 7.8946 4.1018 0.0000 5.6214
359 42 6.3358 18.8882 9.4294 3.9514 0.0000 5.8486
360 42 7.8637 20.4831 11.0532 4.4330 0.0000 5.4046
361 42 6.2796 18.8608 12.5938 5.2185 0.0000 5.2748
362 42 7.8341 20.4558 14.1773 4.2827 0.0000 5.6743
363 42 6.2878 18.9543 15.6793 5.6562 0.0000 4.8876
364 42 7.8861 20.4722 17.3067 5.2253 0.0000 6.3390
365 42 6.2664 18.8913 18.8854 4.8816 0.0000 5.7219
366 42 7.8621 20.4229 20.4630 5.5916 0.0000 6.3009
367 42 6.3069 18.8523 21.9709 4.8468 0.0000 5.5662
368 42 7.8887 20.4704 23.6000 4.8421 0.0000 6.2497
369 42 6.3471 22.0085 0.0348 5.5531 0.0000 5.0244
370 42 7.8607 23.6314 1.5894 4.9305 0.0000 5.8990
371 42 6.2787 22.0035 3.1230 5.5051 0.0000 5.8063
372 42 7.8587 23.6160 4.7654 5.6448 0.0000 5.7493
373 42 6.3245 22.0358 6.3281 4.2842 0.0000 6.3202
374 42 7.8716 23.5892 7.8469 4.7788 0.0000 5.4527
375 42 6.2698 22.0147 9.4078 4.3874 0.0000 6.1423
376 42 7.9017 23.6261 11.0398 5.7205 0.0000 6.2292
377 42 6.2909 22.0187 12.6154 5.7443 0.0000 5.9134
378 42 7.8317 23.5773 14.0763 4.3607 0.0000 5.0733
379 42 6.2969 22.0271 15.7164 5.0608 0.0000 4.8296
380 42 7.8849 23.6309 17.3628 4.7645 0.0000 5.2250
381 42 6.2711 22.0565 18.9354 5.3098 0.0000 4.9475
382 42 7.8263 23.5897 20.4472 3.9257 0.0000 5.1163
383 42 6.2882 22.0367 22.0320 4.0172 0.0000 6.1026
384 42 7.8669 23.6038 23.5637 5.5961 0.0000 4.9842
385 42 9.4099 0.0118 -0.0256 4.8250 0.0000 4.9298
386 42 11.0460 1.5574 1.5398 4.2919 0.0000 5.5238
387 42 9.4226 -0.0442 3.1639 4.7453 0.0000 5.6051
388 42 11.0344 1.5593 4.6938 4.8900 0.0000 5.5501
389 42 9.4964 -0.0059 6.3171 5.6219 0.0000 5.8786
390 42 10.9951 1.5757 7.8243 4.6315 0.0000 4.8742
391 42 9.4328 -0.0018 9.4116 5.5803 0.0000 5.0900
392 42 11.0069 1.6033 11.0283 5.7408 0.0000 4.9561
393 42 9.4254 -0.0004 12.6328 5.3646 0.0000 5.9063
394 42 10.9571 1.5239 14.1271 5.1811 0.0000 5.4757
395 42 9.3962 0.0176 15.7451 5.1983 0.0000 4.7855
396 42 11.0332 1.5333 17.3047 4.0857 0.0000 6.1530
397 42 9.4771 0.0495 18.8678 5.7690 0.0000 6.0548
398 42 11.0033 1.5669 20.4147 3.9587 0.0000 5.0340
399 42 9.4556 0.0696 22.0743 5.0883 0.0000 5.6378
400 42 10.9592 1.5812 23.6204 4.4135 0.0000 5.8752
401 42 9.4358 3.1366 -0.0104 5.3286 0.0000 5.6520
402 42 11.0461 4.7269 1.5507 4.5175 0.0000 5.8121
403 42 9.4783 3.1405 3.1475 5.3045 0.0000 5.4459
404 42 11.0494 4.7425 4.7169 4.7389 0.0000 5.5962
405 42 9.4690 3.1456 6.2835 5.7242 0.0000 5.7667
406 42 11.0393 4.7304 7.9010 4.7203 0.0000 5.7621
407 42 9.4045 3.1624 9.4273 5.1850 0.0000 5.6149
408 42 10.9887 4.7414 11.0564 5.2498 0.0000 5.5123
409 42 9.4163 3.1449 12.5972 5.4627 0.0000 5.6568
410 42 11.0115 4.7015 14.1491 5.2279 0.0000 4.9852
411 42 9.4482 3.0962 15.7148 5.0453 0.0000 6.3871
412 42 10.9682 4.6995 17.3267 4.1905 0.0000 4.8334
413 42 9.3931 3.1578 18.8689 3.9182 0.0000 6.3390
414 42 10.9664 4.7484 20.5320 4.1796 0.0000 5.7684
415 42 9.4752 3.1501 22.0658 5.7490 0.0000 6.0993
416 42 11.0487 4.7346 23.6027 4.4417 0.0000 5.2701
417 42 9.4508 6.2979 -0.0120 4.3837 0.0000 5.1325
418 42 11.0112 7.8868 1.5657 5.6625 0.0000 6.4652
419 42 9.4024 6.2961 3.1083 4.3216 0.0000 6.1708
420 42 10.9810 7.8944 4.6876 5.0542 0.0000 5.7696
421 42 9.4043 6.3025 6.2685 4.5287 0.0000 5.7969
422 42 11.0494 7.8360 7.8518 5.4723 0.0000 5.3289
423 42 9.4150 6.2606 9.4361 5.0107 0.0000 5.2084
424 42 11.0028 7.9288 10.9754 4.3671 0.0000 6.1663
425 42 9.4312 6.2922 12.5936 4.5950 0.0000 4.9351
426 42 11.0067 7.9354 14.1961 5.2131 0.0000 5.6132
427 42 9.4392 6.2949 15.6976 5.3662 0.0000 5.7602
428 42 11.0042 7.8373 17.3332 5.1442 0.0000 6.3160
429 42 9.4421 6.3052 18.8480 4.1040 0.0000 5.0580
430 42 11.0075 7.8956 20.4364 4.1139 0.0000 5.0567
431 42 9.4349 6.2377 22.0557 5.6300 0.0000 5.5908
432 42 11.0446 7.8451 23.6460 4.0607 0.0000 5.8846
433 42 9.4590 9.4123 0.0026 3.8888 0.0000 5.0932
434 42 10.9830 10.9896 1.5684 4.7219 0.0000 5.2828
435 42 9.4503 9.4826 3.1157 3.9509 0.0000 5.7557
436 42 10.9852 11.0141 4.6944 5.4365 0.0000 4.8239
437 42 9.4422 9.4258 6.2623 4.9950 0.0000 5.1571
438 42 10.9757 11.0039 7.8764 5.5632 0.0000 6.0549
439 42 9.3899 9.4367 9.4445 5.0623 0.0000 5.7976
440 42 11.0222 10.9810 11.0068 5.0886 0.0000 5.4874
441 42 9.4157 9.4201 12.5651 4.4646 0.0000 5.5861
442 42 11.0071 11.0086 14.1309 4.9150 0.0000 5.1745
443 42 9.4470 9.4825 15.7701 5.3081 0.0000 4.7985
444 42 11.0371 11.0057 17.3201 5.3508 0.0000 6.0795
445 42 9.3999 9.4463 18.9231 5.5774 0.0000 5.7728
446 42 11.0402 11.0517 20.4411 4.6009 0.0000 6.3788
447 42 9.4450 9.4126 22.0322 4.4343 0.0000 6.3916
448 42 10.9824 10.9544 23.6031 5.6235 0.0000 4.9650
449 42 9.4983 12.5965 0.0161 4.2785 0.0000 6.0069
450 42 11.0518 14.2113 1.5590 5.3233 0.0000 5.9764
451 42 9.4825 12.5929 3.1580 5.1845 0.0000 5.2063
452 42 11.0038 14.1419 4.7071 5.4083 0.0000 6.0005
453 42 9.4743 12.5794 6.2794 5.3411 0.0000 5.0514
454 42 10.9907 14.1668 7.8354 5.3739 0.0000 5.2433
455 42 9.4319 12.5538 9.4286 5.3821 0.0000 5.4358
456 42 11.0165 14.1462 11.0160 4.3187 0.0000 5.4304
457 42 9.4671 12.5775 12.5593 5.3716 0.0000 5.1935
458 42 11.0093 14.1589 14.1509 4.2293 0.0000 6.2391
459 42 9.4223 12.5743 15.7474 4.4510 0.0000 5.3217
460 42 10.9914 14.1071 17.3158 4.6657 0.0000 5.6591
461 42 9.4097 12.5526 18.8931 5.0602 0.0000 5.4713
462 42 11.0061 14.1459 20.4337 4.0121 0.0000 5.9328
463 42 9.4733 12.5881 21.9777 3.8813 0.0000 5.0337
464 42 10.9945 14.1949 23.6546 4.5478 0.0000 5.5020
465 42 9.4710 15.7295 0.0390 4.6250 0.0000 6.2135
466 42 11.0050 17.2855 1.5955 5.5819 0.0000 6.0423
467 42 9.4418 15.6838 3.1150 5.1657 0.0000 5.7358
468 42 10.9719 17.2634 4.6933 4.0524 0.0000 6.2151
469 42 9.4347 15.7446 6.2776 4.2303 0.0000 6.4609
470 42 11.0058 17.2601 7.8262 4.3870 0.0000 6.3810
471 42 9.4687 15.7422 9.4406 4.5153 0.0000 6.2813
472 42 11.0369 17.2577 11.0553 5.0967 0.0000 5.0465
473 42 9.4495 15.6671 12.6172 4.8421 0.0000 5.6846
474 42 11.0076 17.3411 14.1707 4.4137 0.0000 5.6668
475 42 9.4480 15.7207 15.7106 4.2527 0.0000 4.9034
476 42 11.0290 17.3256 17.2684 5.0238 0.0000 5.9074
477 42 9.4122 15.7645 18.8922 5.5925 0.0000 5.9943
478 42 10.9861 17.3185 20.4242 4.1173 0.0000 6.4617
479 42 9.3773 15.7401 22.0276 4.8281 0.0000 5.3281
480 42 10.9567 17.3524 23.5575 4.1565 0.0000 5.0826
481 42 9.4170 18.8968 0.0184 5.1523 0.0000 5.1736
482 42 11.0144 20.4944 1.6272 5.5462 0.0000 5.5033
483 42 9.4008 18.9360 3.1995 5.5892 0.0000 5.3600
484 42 11.0232 20.5030 4.7289 3.9358 0.0000 6.3008
485 42 9.4157 18.8371 6.3121 4.1083 0.0000 5.5506
486 42 11.0097 20.4462 7.8716 5.1976 0.0000 5.5950
487 42 9.4523 18.8535 9.4556 3.9451 0.0000 6.1171
488 42 10.9799 20.4352 11.0616 5.7449 0.0000 5.7149
489 42 9.4393 18.8597 12.5774 5.1654 0.0000 4.9614
490 42 11.0563 20.3851 14.1796 4.8860 0.0000 5.5498
491 42 9.4805 18.8787 15.7639 4.2861 0.0000 5.9626
492 42 11.0018 20.4485 17.2989 5.5950 0.0000 5.5764
493 42 9.4403 18.8914 18.8845 4.0048 0.0000 5.1411
494 42 11.0455 20.4895 20.4880 4.5894 0.0000 5.1363
495 42 9.4023 18.9095 22.0932 5.3390 0.0000 6.3115
496 42 11.0456 20.4672 23.6230 4.6630 0.0000 5.4532
497 42 9.3945 21.9796 0.0238 4.1056 0.0000 5.6231
498 42 10.9632 23.6134 1.5361 4.0667 0.0000 6.2856
499 42 9.4310 22.0214 3.1732 5.5819 0.0000 5.2594
500 42 11.0013 23.5703 4.7671 5.0668 0.0000 4.8015
501 42 9.4369 22.0359 6.3067 4.5506 0.0000 6.1727
502 42 11.0238 23.5985 7.9024 4.7162 0.0000 6.0746
503 42 9.3975 22.0467 9.4492 5.7432 0.0000 5.2093
504 42 10.9919 23.5701 11.0420 5.4265 0.0000 5.9583
505 42 9.3471 22.0221 12.5663 4.2884 0.0000 4.8516
506 42 11.0346 23.6041 14.1139 5.2117 0.0000 5.2818
507 42 9.4806 21.9986 15.7433 5.2710 0.0000 5.5588
508 42 11.0350 23.6201 17.3611 4.1285 0.0000 6.1805
509 42 9.4681 22.0463 18.8507 5.5444 0.0000 5.1968
510 42 10.9980 23.6216 20.4340 4.7585 0.0000 6.4509
511 42 9.4940 22.0368 22.0504 5.0113 0.0000 5.2396
512 42 10.9739 23.5955 23.6070 4.5150 0.0000 5.6717
513 42 12.5883 -0.0016 -0.0222 5.0040 0.0000 5.0819
514 42 14.1006 1.5228 1.5938 5.2960 0.0000 6.1153
515 42 12.5439 0.0405 3.1315 4.2773 0.0000 6.2254
516 42 14.1088 1.5835 4.7546 4.7318 0.0000 5.7476
517 42 12.6038 -0.0146 6.2643 5.1921 0.0000 4.9864
518 42 14.2201 1.5226 7.8101 5.6730 0.0000 4.9222
519 42 12.5650 -0.0315 9.4615 5.0628 0.0000 5.6302
520 42 14.1637 1.5706 11.0630 5.5518 0.0000 4.8275
521 42 12.5646 -0.0010 12.6146 4.1538 0.0000 5.2515
522 42 14.1228 1.5982 14.1398 5.3890 0.0000 5.8915
523 42 12.5743 -0.0160 15.7137 5.5836 0.0000 5.2800
524 42 14.1238 1.6012 17.3069 4.2611 0.0000 6.3956
525 42 12.5927 0.0394 18.8591 4.0907 0.0000 5.3901
526 42 14.1932 1.5880 20.3898 5.1367 0.0000 5.8303
527 42 12.6028 0.0044 22.0437 5.3681 0.0000 5.2880
528 42 14.1510 1.6174 23.5864 4.7984 0.0000 5.1172
529 42 12.5713 3.1861 0.0403 5.6640 0.0000 5.6227
530 42 14.1355 4.7383 1.5608 4.4283 0.0000 6.2277
531 42 12.5663 3.1344 3.1287 4.6946 0.0000 5.6627
532 42 14.1997 4.6922 4.6975 4.8553 0.0000 5.3281
533 42 12.5982 3.1072 6.3151 5.0665 0.0000 5.8041
534 42 14.1746 4.7694 7.9171 4.1706 0.0000 4.8085
535 42 12.5692 3.1799 9.3676 5.2127 0.0000 5.0164
536 42 14.1300 4.7307 10.9808 5.4424 0.0000 6.1400
537 42 12.6022 3.1015 12.5426 4.1313 0.0000 5.5313
538 42 14.2040 4.7475 14.1615 5.3130 0.0000 5.4602
539 42 12.5900 3.2132 15.7447 5.3466 0.0000 6.3414
540 42 14.1777 4.7465 17.2870 4.8108 0.0000 5.2933
541 42 12.5856 3.1650 18.8176 4.8225 0.0000 4.8542
542 42 14.1477 4.7080 20.4226 4.2666 0.0000 5.3905
543 42 12.6001 3.1344 22.0672 4.0254 0.0000 6.1120
544 42 14.1821 4.7223 23.5292 4.5218 0.0000 5.4921
545 42 12.5316 6.3069 0.0293 5.0903 0.0000 5.3035
546 42 14.1802 7.8841 1.5697 5.1935 0.0000 5.8503
547 42 12.6102 6.2908 3.1246 4.3728 0.0000 6.2572
548 42 14.1371 7.8197 4.6875 4.6820 0.0000 5.0463
549 42 12.6162 6.2987 6.2790 5.5304 0.0000 6.0576
550 42 14.1881 7.8550 7.8816 4.7886 0.0000 5.3208
551 42 12.5546 6.3118 9.4349 5.0541 0.0000 5.4378
552 42 14.1512 7.8816 11.0738 5.6569 0.0000 5.7156
553 42 12.5461 6.2954 12.6144 5.0199 0.0000 6.3060
554 42 14.1144 7.8734 14.1663 4.1284 0.0000 5.7426
555 42 12.6028 6.3287 15.7698 4.7361 0.0000 4.9103
556 42 14.1776 7.8832 17.2797 4.0198 0.0000 6.1121
557 42 12.5512 6.2426 18.9268 4.4645 0.0000 6.2061
558 42 14.1624 7.8750 20.4924 4.8564 0.0000 6.3618
559 42 12.5828 6.2860 21.9961 5.1262 0.0000 5.4049
560 42 14.2029 7.8979 23.5921 5.5307 0.0000 5.7489
561 42 12.5696 9.4353 0.0551 5.5045 0.0000 5.0977
562 42 14.1854 11.0655 1.6374 5.7787 0.0000 4.9282
563 42 12.6161 9.4346 3.1715 4.4679 0.0000 6.4593
564 42 14.1189 11.0408 4.7111 4.3515 0.0000 5.6708
565 42 12.5771 9.4376 6.2933 5.7292 0.0000 5.1737
566 42 14.1852 11.0490 7.8500 5.2210 0.0000 6.4257
567 42 12.5975 9.3974 9.4609 4.7595 0.0000 5.3485
568 42 14.1913 11.0083 11.0473 5.1690 0.0000 6.2461
569 42 12.5844 9.4702 12.5944 5.7807 0.0000 5.2066
570 42 14.1543 11.0528 14.1105 4.9093 0.0000 5.3648
571 42 12.5939 9.4136 15.7247 4.2310 0.0000 5.1119
572 42 14.1437 11.0745 17.2995 4.2431 0.0000 6.0823
573 42 12.6146 9.5019 18.8948 4.8691 0.0000 5.0448
574 42 14.1755 10.9825 20.4302 5.0470 0.0000 5.4891
575 42 12.6323 9.4121 22.0952 4.6169 0.0000 5.6406
576 42 14.1778 11.0032 23.6643 5.0743 0.0000 5.7829
577 42 12.5626 12.5678 -0.0127 3.9200 0.0000 5.3897
578 42 14.1438 14.1542 1.5665 5.0358 0.0000 5.3137
579 42 12.4897 12.6564 3.1521 4.7907 0.0000 5.2515
580 42 14.2172 14.1796 4.7509 5.7287 0.0000 5.0058
581 42 12.5376 12.5834 6.2523 4.0650 0.0000 5.6798
582 42 14.1443 14.1340 7.8229 4.9872 0.0000 6.4039
583 42 12.5812 12.5887 9.4615 4.2273 0.0000 5.5801
584 42 14.1531 14.1435 11.0260 4.8370 0.0000 5.7271
585 42 12.6109 12.6320 12.6273 4.8512 0.0000 5.5378
586 42 14.1569 14.1460 14.1330 3.9587 0.0000 5.3101
587 42 12.6634 12.5777 15.7629 4.6955 0.0000 5.8707
588 42 14.1050 14.1859 17.3134 5.6726 0.0000 5.7130
589 42 12.6119 12.6036 18.8069 4.2933 0.0000 6.1754
590 42 14.1359 14.1791 20.4029 4.2491 0.0000 5.4138
591 42 12.5761 12.6317 22.0367 5.0027 0.0000 5.8128
592 42 14.1627 14.1763 23.5909 5.5640 0.0000 6.0042
593 42 12.5679 15.7138 0.0021 4.1119 0.0000 4.9971