ITEM: TIMESTEP
0
ITEM: NUMBER OF ATOMS
1024
ITEM: BOX BOUNDS pp pp pp
0.0 26.4000
0.0 26.4000
0.0 26.4000
ITEM: ATOMS id type x y z error strain stiffness
1 41 0.0103 -0.0061 -0.0224 3.4281 0.0000 3.7922
2 41 1.6394 1.6118 1.6523 3.1528 0.0000 3.5045
3 41 -0.0507 0.0550 3.2768 3.8346 0.0000 3.5100
4 41 1.6123 1.6541 4.9583 3.9579 0.0000 3.5446
5 41 -0.0425 0.0078 6.6233 3.7417 0.0000 4.1735
6 41 1.6161 1.6301 8.2057 3.4166 0.0000 3.7227
7 41 -0.0213 0.0095 9.9047 3.4629 0.0000 4.1867
8 41 1.6316 1.6478 11.5606 3.5801 0.0000 3.4649
9 41 0.0254 -0.0066 13.2268 3.5131 0.0000 4.4692
10 41 1.6097 1.6965 14.8425 3.1632 0.0000 3.4867
11 41 0.0077 0.0300 16.4992 3.4546 0.0000 3.8896
12 41 1.6567 1.5972 18.1346 4.1901 0.0000 4.2794
13 41 0.0205 -0.0159 19.8675 3.5455 0.0000 3.7879
14 41 1.6702 1.6425 21.4523 3.7530 0.0000 4.2449
15 41 0.0026 0.0323 23.1093 3.9742 0.0000 4.1422
16 41 1.6347 1.6213 24.7550 3.2720 0.0000 3.4883
17 41 -0.0116 3.2693 0.0344 3.6606 0.0000 4.4414
18 41 1.6214 4.9656 1.6688 3.6837 0.0000 4.0875
19 41 0.0037 3.3211 3.2976 3.2923 0.0000 4.2711
20 41 1.6205 4.9317 4.9519 4.0369 0.0000 3.6247
21 41 0.0525 3.3207 6.6026 2.9914 0.0000 3.8848
22 41 1.6368 4.9978 8.2315 4.0959 0.0000 3.9313
23 41 -0.0072 3.2612 9.8780 4.1079 0.0000 3.4175
24 41 1.6586 4.9417 11.5357 3.8634 0.0000 4.5004
25 41 0.0162 3.3351 13.1857 4.2015 0.0000 4.3052
26 41 1.6841 4.9491 14.8205 3.0153 0.0000 3.9921
27 41 0.0035 3.3334 16.4937 3.2451 0.0000 3.4033
28 41 1.6900 4.9642 18.1527 3.9149 0.0000 3.8670
29 41 0.0271 3.3040 19.8200 3.4386 0.0000 3.9488
30 41 1.6677 4.9016 21.4659 3.9125 0.0000 3.7387
31 41 -0.0004 3.2504 23.1386 3.6287 0.0000 3.4886
32 41 1.6188 4.9582 24.7590 4.3655 0.0000 4.0207
33 41 0.0406 6.5653 -0.0082 4.0515 0.0000 3.5870
34 41 1.6579 8.2468 1.6192 4.4200 0.0000 3.8053
35 41 0.0190 6.5975 3.3137 3.5813 0.0000 3.7152
36 41 1.6492 8.2332 4.8974 3.8917 0.0000 4.4713
37 41 -0.0507 6.6274 6.5938 3.5152 0.0000 3.7410
38 41 1.6519 8.2539 8.2986 3.2795 0.0000 4.4568
39 41 -0.0290 6.6153 9.8583 4.2474 0.0000 3.9510
40 41 1.6355 8.2144 11.5312 3.0307 0.0000 4.4956
41 41 -0.0062 6.5926 13.1956 3.7350 0.0000 4.2462
42 41 1.6558 8.2585 14.8376 2.9846 0.0000 3.7330
43 41 0.0097 6.6197 16.4969 4.3511 0.0000 4.3225
44 41 1.6288 8.2196 18.2054 3.7547 0.0000 3.4880
45 41 -0.0057 6.6264 19.7891 3.7531 0.0000 3.8953
46 41 1.6407 8.2419 21.4656 3.4977 0.0000 4.0794
47 41 -0.0267 6.5939 23.0879 4.3227 0.0000 4.3437
48 41 1.6677 8.2583 24.7232 3.3063 0.0000 4.1715
49 41 0.0088 9.8946 -0.0168 3.7364 0.0000 3.6105
50 41 1.6671 11.5244 1.6244 4.1656 0.0000 3.7881
51 41 0.0520 9.8496 3.3150 3.7651 0.0000 3.8882
52 41 1.6543 11.5556 4.9920 4.3518 0.0000 4.4884
53 41 0.0147 9.8867 6.5807 4.2819 0.0000 3.5554
54 41 1.6803 11.5807 8.2712 4.3423 0.0000 3.7939
55 41 0.0117 9.8743 9.8825 3.8265 0.0000 3.4061
56 41 1.6671 11.5245 11.5219 3.4343 0.0000 4.3176
57 41 -0.0034 9.9116 13.1973 4.3189 0.0000 3.5196
58 41 1.6612 11.5161 14.8194 4.1048 0.0000 3.9314
59 41 0.0026 9.8864 16.4685 3.7903 0.0000 3.3757
60 41 1.6996 11.5288 18.1173 2.9951 0.0000 3.5785
61 41 0.0109 9.9200 19.8017 3.3469 0.0000 3.3575
62 41 1.6638 11.5653 21.4355 3.0064 0.0000 4.2914
63 41 -0.0261 9.8701 23.1474 3.2040 0.0000 4.4838
64 41 1.6099 11.5462 24.7185 4.1113 0.0000 3.6199
65 41 -0.0027 13.2630 0.0134 3.2403 0.0000 4.4135
66 41 1.6651 14.8508 1.6481 4.1485 0.0000 4.1641
67 41 0.0260 13.1831 3.2988 3.9176 0.0000 3.5684
68 41 1.6527 14.9026 4.9679 3.8798 0.0000 3.6465
69 41 -0.0169 13.2026 6.6210 4.0992 0.0000 4.1789
70 41 1.6694 14.8557 8.2279 3.7999 0.0000 4.1729
71 41 0.0117 13.2165 9.8841 3.6600 0.0000 3.8471
72 41 1.6508 14.8520 11.5918 4.1127 0.0000 4.1467
73 41 0.0104 13.2278 13.2480 3.4559 0.0000 4.3841
74 41 1.6044 14.8428 14.8122 3.0218 0.0000 3.3461
75 41 -0.0176 13.2387 16.5505 4.3890 0.0000 4.3243
76 41 1.6269 14.8380 18.1534 3.1882 0.0000 3.8133
77 41 -0.0106 13.2427 19.8554 4.1630 0.0000 3.4408
78 41 1.6352 14.8492 21.4221 4.4600 0.0000 3.9617
79 41 -0.0190 13.2495 23.0777 4.2224 0.0000 3.9551
80 41 1.6819 14.8381 24.7669 4.4062 0.0000 4.4312
81 41 0.0233 16.4257 0.0236 3.3052 0.0000 4.3315
82 41 1.6455 18.1113 1.6498 4.0952 0.0000 3.6391
83 41 -0.0379 16.4905 3.3014 4.1851 0.0000 4.2804
84 41 1.6370 18.1336 4.9692 3.2289 0.0000 4.2816
85 41 -0.0055 16.4999 6.6079 4.1978 0.0000 3.6586
86 41 1.6674 18.1373 8.2462 3.3169 0.0000 3.3863
87 41 0.0103 16.4664 9.9341 3.9655 0.0000 4.0833
88 41 1.6542 18.0636 11.5264 3.8850 0.0000 3.9777
89 41 0.0083 16.4871 13.1987 3.9035 0.0000 4.4998
90 41 1.6417 18.1291 14.7884 4.1491 0.0000 4.0656
91 41 -0.0263 16.5061 16.5085 4.3530 0.0000 4.3456
92 41 1.6191 18.1754 18.1304 4.0038 0.0000 3.6391
93 41 0.0081 16.5210 19.7872 4.2325 0.0000 3.5888
94 41 1.6553 18.1638 21.4323 4.2317 0.0000 4.4526
95 41 -0.0166 16.4605 23.1105 4.1257 0.0000 4.1489
96 41 1.6970 18.1769 24.7591 3.9512 0.0000 3.4719
97 41 -0.0161 19.8124 -0.0143 3.3434 0.0000 3.7081
98 41 1.6533 21.4202 1.6588 3.0722 0.0000 3.8865
99 41 0.0273 19.8159 3.3284 3.4713 0.0000 4.5131
100 41 1.6539 21.4658 4.9633 4.3860 0.0000 4.5015
101 41 -0.0141 19.7799 6.6145 3.3748 0.0000 3.9365
102 41 1.6711 21.4011 8.2161 3.4717 0.0000 3.9146
103 41 0.0011 19.7880 9.8877 3.8702 0.0000 3.4806
104 41 1.6558 21.4416 11.4830 3.5475 0.0000 3.7099
105 41 -0.0070 19.7757 13.2623 4.0145 0.0000 4.2184
106 41 1.6549 21.4191 14.8334 4.1682 0.0000 4.1057
107 41 -0.0167 19.7834 16.5228 4.2827 0.0000 4.4629
108 41 1.6314 21.4366 18.1444 4.2477 0.0000 3.6441
109 41 0.0149 19.7818 19.7905 3.3747 0.0000 4.0110
110 41 1.6446 21.4637 21.4856 3.7645 0.0000 3.8431
111 41 -0.0157 19.8265 23.0910 4.0687 0.0000 3.8107
112 41 1.6804 21.4269 24.7498 3.3253 0.0000 4.1356
113 41 0.0194 23.1175 -0.0070 4.2365 0.0000 3.9209
114 41 1.6447 24.7932 1.6041 3.5611 0.0000 3.9267
115 41 -0.0241 23.1274 3.3351 3.0536 0.0000 3.5471
116 41 1.6313 24.7124 4.9416 3.9954 0.0000 3.7048
117 41 -0.0104 23.1277 6.6052 4.4068 0.0000 3.5473
118 41 1.6774 24.7187 8.2576 2.9972 0.0000 3.9942
119 41 0.0226 23.0824 9.8984 4.1393 0.0000 4.1053
120 41 1.6518 24.7778 11.5398 4.0375 0.0000 4.0565
121 41 -0.0061 23.0755 13.2003 4.2706 0.0000 4.2747
122 41 1.6333 24.7974 14.8259 4.3193 0.0000 3.9382
123 41 0.0363 23.1065 16.4584 3.1185 0.0000 4.4706
124 41 1.6354 24.7766 18.1355 4.3757 0.0000 4.0782
125 41 -0.0080 23.1110 19.8001 3.0998 0.0000 3.7526
126 41 1.6697 24.7179 21.4516 3.4175 0.0000 4.5013
127 41 0.0168 23.1180 23.0990 3.2019 0.0000 4.2555
128 41 1.6496 24.7713 24.7203 3.8897 0.0000 3.3570
129 41 3.2966 0.0406 -0.0211 3.7894 0.0000 4.3732
130 41 4.9424 1.6563 1.7005 4.2450 0.0000 3.6942
131 41 3.3035 0.0266 3.2687 3.8169 0.0000 3.5363
132 41 4.9764 1.6571 4.9523 3.6011 0.0000 3.4254
133 41 3.2835 -0.0086 6.5953 3.4717 0.0000 3.4961
134 41 4.9395 1.6697 8.2538 3.3616 0.0000 3.4202
135 41 3.2908 0.0296 9.8927 3.1409 0.0000 3.5222
136 41 4.9330 1.6466 11.5738 3.3300 0.0000 3.8078
137 41 3.2979 0.0251 13.1752 3.7205 0.0000 3.5315
138 41 4.9158 1.6469 14.8618 3.5322 0.0000 4.2249
139 41 3.2799 -0.0209 16.4653 4.3309 0.0000 3.9795
140 41 4.9330 1.6778 18.1531 4.3852 0.0000 3.9221
141 41 3.3126 0.0186 19.7688 3.2550 0.0000 3.3399
142 41 4.9481 1.6419 21.4591 3.1741 0.0000 4.1689
143 41 3.2890 -0.0262 23.1027 4.0423 0.0000 3.8969
144 41 4.9880 1.6459 24.7739 3.7759 0.0000 4.5098
145 41 3.3110 3.3164 0.0633 3.8251 0.0000 3.8389
146 41 4.9549 4.9246 1.6689 4.3840 0.0000 4.4229
147 41 3.3286 3.2816 3.2967 3.7183 0.0000 3.9070
148 41 4.9284 4.9408 4.9240 3.6738 0.0000 4.3704
149 41 3.2901 3.3448 6.6011 3.2534 0.0000 3.9173
150 41 4.9679 4.9866 8.2292 4.1946 0.0000 3.3618
151 41 3.2954 3.2490 9.8284 3.6898 0.0000 3.3422
152 41 4.9480 4.9841 11.5444 3.7143 0.0000 4.4773
153 41 3.2807 3.2995 13.1770 3.4885 0.0000 3.7678
154 41 4.9774 4.9401 14.8250 3.7253 0.0000 3.6576
155 41 3.2844 3.3066 16.4779 3.4566 0.0000 4.4748
156 41 4.9365 4.9501 18.1300 4.0778 0.0000 3.3718
157 41 3.2946 3.2978 19.7994 3.0658 0.0000 4.3959
158 41 4.9383 4.9573 21.4974 3.8733 0.0000 4.4066
159 41 3.3004 3.3287 23.1473 3.0810 0.0000 4.1765
160 41 5.0106 4.9518 24.7660 4.3823 0.0000 3.4492
161 41 3.2705 6.6086 0.0384 4.4450 0.0000 3.9357
162 41 4.9095 8.2419 1.6701 3.4851 0.0000 3.3601
163 41 3.3403 6.6203 3.2930 3.9270 0.0000 3.5704
164 41 4.9660 8.2765 4.9448 3.4331 0.0000 3.6489
165 41 3.2707 6.5790 6.6630 3.3177 0.0000 4.0967
166 41 4.9472 8.2349 8.3033 4.3431 0.0000 3.3584
167 41 3.3022 6.5963 9.9280 4.2060 0.0000 4.2947
168 41 4.9656 8.2345 11.5642 3.8026 0.0000 3.7279
169 41 3.3445 6.5938 13.2132 3.7252 0.0000 3.8169
170 41 4.9580 8.2322 14.8524 3.5129 0.0000 3.6146
171 41 3.3365 6.5828 16.5568 4.0152 0.0000 3.6360
172 41 4.9323 8.2758 18.1153 3.8139 0.0000 3.5103
173 41 3.2999 6.5907 19.7583 4.4618 0.0000 4.2182
174 41 4.9478 8.2445 21.4511 3.6237 0.0000 3.3861
175 41 3.2806 6.5738 23.0895 3.1583 0.0000 4.3999
176 41 4.9317 8.2435 24.7518 3.0264 0.0000 3.8904
177 41 3.3370 9.8918 -0.0166 3.3085 0.0000 3.7060
178 41 4.9511 11.5350 1.6320 3.8723 0.0000 4.5154
179 41 3.2859 9.9064 3.3290 3.8661 0.0000 3.6421
180 41 4.9418 11.5314 4.9252 4.2205 0.0000 4.2902
181 41 3.2880 9.9011 6.5976 3.2183 0.0000 4.2472
182 41 4.9719 11.5413 8.2302 4.1038 0.0000 4.3086
183 41 3.2914 9.9110 9.8975 4.4607 0.0000 3.7055
184 41 4.9119 11.5573 11.5386 4.1622 0.0000 4.5018
185 41 3.3108 9.8992 13.1838 4.2001 0.0000 4.1423
186 41 4.9717 11.5394 14.8480 4.3026 0.0000 4.3044
187 41 3.2797 9.8642 16.4498 4.3801 0.0000 3.6525
188 41 4.9646 11.6261 18.1318 4.3225 0.0000 4.4937
189 41 3.3145 9.8911 19.8033 4.3632 0.0000 3.8056
190 41 4.9322 11.5241 21.4508 4.3789 0.0000 3.3557
191 41 3.2678 9.9105 23.1319 3.6127 0.0000 4.4684
192 41 4.9456 11.5422 24.7348 3.0428 0.0000 3.9099
193 41 3.3267 13.2230 0.0067 3.9997 0.0000 4.0259
194 41 4.9892 14.9066 1.6299 3.4886 0.0000 3.7610
195 41 3.3192 13.2428 3.2645 4.3927 0.0000 3.6913
196 41 4.9285 14.8572 4.9238 3.8249 0.0000 3.7874
197 41 3.3073 13.2171 6.5916 2.9974 0.0000 3.9549
198 41 4.9608 14.8460 8.2583 3.5081 0.0000 4.4233
199 41 3.3002 13.2046 9.8792 4.1490 0.0000 4.2554
200 41 4.9202 14.8775 11.6030 3.2064 0.0000 4.2418
201 41 3.2799 13.2491 13.1935 4.1643 0.0000 3.6025
202 41 4.9076 14.8588 14.8271 3.0760 0.0000 3.4850
203 41 3.3042 13.1642 16.4825 3.7401 0.0000 4.5049
204 41 5.0112 14.8235 18.1684 4.3593 0.0000 3.8905
205 41 3.3035 13.2103 19.7913 4.1779 0.0000 3.3845
206 41 4.9550 14.8745 21.4776 3.4541 0.0000 4.3340
207 41 3.3155 13.1515 23.1014 4.4551 0.0000 4.3507
208 41 4.9908 14.8149 24.7379 3.6893 0.0000 3.3677
209 41 3.3075 16.5120 0.0019 3.1447 0.0000 3.5315
210 41 4.9342 18.1228 1.6344 3.9083 0.0000 3.7478
211 41 3.3084 16.5482 3.3299 3.5336 0.0000 4.1440
212 41 4.9384 18.1708 4.9641 4.1132 0.0000 3.8307
213 41 3.3087 16.4841 6.5883 4.0777 0.0000 3.3707
214 41 4.9492 18.1434 8.2557 3.8803 0.0000 4.0985
215 41 3.2814 16.4876 9.8444 3.9536 0.0000 4.0379
216 41 4.9375 18.1077 11.5761 4.1758 0.0000 3.7744
217 41 3.3240 16.4704 13.1850 4.1968 0.0000 3.4966
218 41 4.9471 18.1860 14.8950 3.3802 0.0000 4.3386
219 41 3.3064 16.4654 16.5108 3.6367 0.0000 3.4560
220 41 4.9641 18.1530 18.1464 3.9547 0.0000 4.0193
221 41 3.2699 16.5266 19.8351 4.3646 0.0000 3.5289
222 41 4.9257 18.1326 21.4249 4.4276 0.0000 3.4807
223 41 3.3111 16.5063 23.0922 4.1752 0.0000 4.1110
224 41 4.9470 18.1602 24.7276 4.2529 0.0000 4.2961
225 41 3.3047 19.8300 0.0282 3.2128 0.0000 3.6217
226 41 4.9517 21.4420 1.6425 4.1168 0.0000 4.2277
227 41 3.2369 19.8281 3.2876 3.3716 0.0000 3.8716
228 41 5.0035 21.4786 4.9654 3.9394 0.0000 3.8797
229 41 3.2835 19.7760 6.6483 4.0721 0.0000 3.9561
230 41 4.9875 21.4420 8.2347 3.1536 0.0000 4.2028
231 41 3.3145 19.8015 9.9184 3.5258 0.0000 3.8399
232 41 4.9646 21.4241 11.5215 3.3516 0.0000 3.5856
233 41 3.3006 19.7983 13.1817 2.9775 0.0000 4.1366
234 41 4.9036 21.4604 14.8824 3.2566 0.0000 3.9953
235 41 3.3284 19.8261 16.5165 3.1187 0.0000 3.8370
236 41 4.9396 21.4751 18.1074 3.6604 0.0000 3.8984
237 41 3.2673 19.7736 19.7878 3.1657 0.0000 3.8097
238 41 5.0141 21.4493 21.4783 3.8839 0.0000 3.9999
239 41 3.3368 19.8049 23.0480 3.1616 0.0000 3.6417
240 41 4.9359 21.4188 24.7668 4.4166 0.0000 3.9683
241 41 3.3187 23.1216 0.0036 3.6623 0.0000 4.1210
242 41 4.9583 24.7511 1.6689 3.7165 0.0000 4.0404
243 41 3.2909 23.1152 3.3178 3.0106 0.0000 3.6591
244 41 4.9012 24.7156 4.9717 3.5944 0.0000 3.3830
245 41 3.3104 23.1438 6.6189 3.6742 0.0000 4.0304
246 41 4.9527 24.7111 8.3031 3.7527 0.0000 3.8469
247 41 3.3014 23.0774 9.9426 3.0160 0.0000 3.7964
248 41 4.9680 24.7382 11.5420 4.1496 0.0000 3.6702
249 41 3.2723 23.0690 13.2507 4.2916 0.0000 3.3612
250 41 4.9640 24.7322 14.8336 4.1103 0.0000 3.7095
251 41 3.3229 23.0991 16.4966 3.9795 0.0000 3.8478
252 41 4.9709 24.7655 18.1752 3.5116 0.0000 4.3536
253 41 3.3279 23.1379 19.8378 4.3110 0.0000 3.5391
254 41 4.8960 24.7433 21.4429 3.7393 0.0000 3.3577
255 41 3.3164 23.1148 23.0697 4.4317 0.0000 3.3489
256 41 4.9687 24.7376 24.7324 3.3766 0.0000 4.0636
257 41 6.6259 0.0107 0.0113 4.1702 0.0000 3.7600
258 41 8.2822 1.6328 1.6759 3.9262 0.0000 4.3247
259 41 6.5864 -0.0345 3.2879 3.7269 0.0000 3.9035
260 41 8.2191 1.6928 4.9273 3.1274 0.0000 3.5349
261 41 6.5688 0.0400 6.6192 3.8724 0.0000 3.5318
262 41 8.2203 1.6446 8.2380 3.2849 0.0000 4.4324
263 41 6.5945 0.0245 9.8807 4.1779 0.0000 3.9357
264 41 8.2689 1.6301 11.5525 4.3786 0.0000 3.8570
265 41 6.6054 -0.0419 13.2067 2.9779 0.0000 3.9250
266 41 8.2624 1.6501 14.8528 3.0837 0.0000 3.6645
267 41 6.5500 0.0155 16.5162 3.0222 0.0000 4.1670
268 41 8.2531 1.6606 18.1837 2.9854 0.0000 3.8534
269 41 6.5925 0.0246 19.7834 4.0971 0.0000 3.8987
270 41 8.2442 1.6966 21.4410 3.3886 0.0000 3.7013
271 41 6.5927 -0.0414 23.0802 3.9236 0.0000 4.3993
272 41 8.2279 1.6638 24.7933 4.3114 0.0000 3.8906
273 41 6.6001 3.3191 0.0159 4.4445 0.0000 3.4726
274 41 8.2533 4.9486 1.6356 4.0686 0.0000 3.6055
275 41 6.6410 3.2829 3.2905 3.8604 0.0000 3.6017
276 41 8.2906 4.9876 4.9160 3.7708 0.0000 4.0698
277 41 6.5767 3.2412 6.5868 4.4288 0.0000 4.2259
278 41 8.2924 4.9753 8.2074 4.1044 0.0000 3.7834
279 41 6.6321 3.2896 9.9065 3.4600 0.0000 3.5397
280 41 8.2605 4.9314 11.5781 4.2592 0.0000 4.1506
281 41 6.6170 3.2924 13.1951 4.4431 0.0000 4.4654
282 41 8.2794 4.9776 14.8754 3.9262 0.0000 4.2784
283 41 6.6128 3.2864 16.4712 3.3925 0.0000 4.2198
284 41 8.2425 4.9616 18.1625 3.6032 0.0000 4.1049
285 41 6.5870 3.3289 19.8258 3.3373 0.0000 4.0376
286 41 8.2584 4.9568 21.4605 3.2026 0.0000 3.6421
287 41 6.5987 3.2675 23.0955 3.8639 0.0000 3.3401
288 41 8.2222 4.9724 24.7439 3.2154 0.0000 3.4503
289 41 6.6221 6.5900 0.0007 3.3666 0.0000 4.3942
290 41 8.2652 8.2696 1.6817 3.6722 0.0000 4.3535
291 41 6.6022 6.6405 3.3103 4.0054 0.0000 3.8492
292 41 8.2443 8.2294 4.9234 3.6120 0.0000 3.3472
293 41 6.5966 6.5933 6.5703 3.2762 0.0000 4.1916
294 41 8.2429 8.2686 8.2657 3.0004 0.0000 4.0846
295 41 6.6364 6.5876 9.8894 4.1416 0.0000 3.8490
296 41 8.2297 8.2334 11.5249 3.3448 0.0000 3.8873
297 41 6.6152 6.6138 13.2083 3.5518 0.0000 4.0296
298 41 8.2271 8.2207 14.8398 3.4053 0.0000 3.6189
299 41 6.5875 6.6109 16.5063 3.3048 0.0000 3.7857
300 41 8.2371 8.2611 18.1333 4.3669 0.0000 4.4812
301 41 6.6102 6.6123 19.8071 3.5957 0.0000 3.8060
302 41 8.2929 8.2187 21.4376 4.2377 0.0000 4.4031
303 41 6.6198 6.5942 23.1368 2.9915 0.0000 3.9768
304 41 8.2763 8.2425 24.7838 3.0791 0.0000 4.0611
305 41 6.5960 9.8619 -0.0301 4.3362 0.0000 3.4407
306 41 8.2627 11.5342 1.6556 3.1524 0.0000 3.9535
307 41 6.5784 9.9126 3.2635 3.4925 0.0000 3.6812
308 41 8.2058 11.5657 5.0045 3.3578 0.0000 4.4473
309 41 6.5689 9.9267 6.6217 3.1263 0.0000 4.3238
310 41 8.2474 11.5581 8.2501 3.7687 0.0000 3.9029
311 41 6.6068 9.8640 9.9345 2.9750 0.0000 3.4964
312 41 8.3015 11.5311 11.5681 3.4373 0.0000 3.5595
313 41 6.5643 9.9394 13.2052 4.1600 0.0000 4.4335
314 41 8.2944 11.6190 14.8594 3.1653 0.0000 3.9171
315 41 6.5903 9.8732 16.4995 3.1410 0.0000 3.4133
316 41 8.2702 11.5381 18.1165 4.0479 0.0000 3.4902
317 41 6.5541 9.9098 19.7514 3.5089 0.0000 4.3335
318 41 8.2426 11.5613 21.4043 3.1809 0.0000 3.8887
319 41 6.6254 9.8809 23.0749 4.1185 0.0000 4.3021
320 41 8.2487 11.6028 24.7727 3.0328 0.0000 3.6659
321 41 6.6063 13.2065 0.0213 3.9521 0.0000 3.9181
322 41 8.2475 14.8852 1.6374 3.7587 0.0000 3.7008
323 41 6.6015 13.1996 3.3104 3.3079 0.0000 3.3661
324 41 8.2408 14.8513 4.9892 3.3331 0.0000 4.0899
325 41 6.6167 13.2049 6.6031 4.0002 0.0000 3.4521
326 41 8.2622 14.8447 8.2893 3.0152 0.0000 4.2494
327 41 6.5879 13.1950 9.9014 4.4391 0.0000 3.6570
328 41 8.2052 14.8609 11.5571 3.2230 0.0000 3.5091
329 41 6.5469 13.1560 13.1986 4.1948 0.0000 4.4877
330 41 8.2389 14.8456 14.8504 3.8652 0.0000 3.7856
331 41 6.5992 13.1886 16.4731 3.0355 0.0000 4.2527
332 41 8.3084 14.8275 18.1325 3.8591 0.0000 4.3470
333 41 6.6083 13.2240 19.8015 3.7619 0.0000 4.1915
334 41 8.2161 14.8405 21.5133 3.8546 0.0000 4.0054
335 41 6.6446 13.1901 23.0836 4.4543 0.0000 3.6133
336 41 8.2711 14.8704 24.6866 3.7402 0.0000 3.6913
337 41 6.5885 16.4912 -0.0032 3.3331 0.0000 3.4665
338 41 8.2789 18.1256 1.6394 4.1525 0.0000 3.5195
339 41 6.6240 16.5018 3.3010 3.3220 0.0000 4.4165
340 41 8.2604 18.1524 5.0195 4.4387 0.0000 3.9065
341 41 6.6241 16.4627 6.5664 3.9416 0.0000 4.0246
342 41 8.2512 18.1221 8.2481 3.0825 0.0000 4.3857
343 41 6.6273 16.4855 9.9107 4.2859 0.0000 4.3163
344 41 8.2838 18.1760 11.5721 3.7299 0.0000 3.5086
345 41 6.5764 16.4710 13.1893 3.8956 0.0000 4.3874
346 41 8.2312 18.1264 14.8325 4.2546 0.0000 4.2668
347 41 6.5977 16.4938 16.4847 3.5124 0.0000 3.4734
348 41 8.2596 18.1461 18.1634 3.7080 0.0000 4.4382
349 41 6.5859 16.4347 19.8389 4.4112 0.0000 3.9411
350 41 8.2099 18.1664 21.4156 3.4032 0.0000 3.5466
351 41 6.5770 16.5068 23.0761 3.2361 0.0000 4.2969
352 41 8.2715 18.1080 24.7251 4.1370 0.0000 4.4772
353 41 6.5990 19.8032 0.0187 3.7178 0.0000 3.8014
354 41 8.2837 21.4483 1.6380 3.0123 0.0000 3.5750
355 41 6.5776 19.8117 3.2959 3.9882 0.0000 4.4032
356 41 8.2835 21.4485 4.9200 3.1515 0.0000 3.9381
357 41 6.6585 19.8032 6.6178 3.9711 0.0000 3.6509
358 41 8.2452 21.4557 8.2262 3.6089 0.0000 4.0464
359 41 6.6690 19.8160 9.9102 4.4529 0.0000 3.9298
360 41 8.2546 21.4569 11.5480 3.3729 0.0000 4.3508
361 41 6.5966 19.7824 13.1968 4.2567 0.0000 3.4897
362 41 8.2456 21.4044 14.8670 3.6945 0.0000 4.2219
363 41 6.6196 19.7861 16.4788 3.8149 0.0000 3.9181
364 41 8.2886 21.4803 18.1356 3.6746 0.0000 3.6940
365 41 6.6181 19.8256 19.8080 3.6932 0.0000 4.2754
366 41 8.2507 21.4267 21.4815 3.3400 0.0000 4.2941
367 41 6.6092 19.8129 23.0855 3.5127 0.0000 3.9806
368 41 8.2510 21.4077 24.7721 3.3625 0.0000 4.4354
369 41 6.5784 23.0933 -0.0411 3.9351 0.0000 4.1849
370 41 8.2209 24.7208 1.6175 3.6428 0.0000 3.7548
371 41 6.6312 23.1507 3.3201 3.9775 0.0000 3.7354
372 41 8.2706 24.7761 4.9169 4.1294 0.0000 3.5086
373 41 6.6114 23.1091 6.6247 3.1877 0.0000 3.5979
374 41 8.2663 24.7735 8.2639 3.3432 0.0000 3.5299
375 41 6.6136 23.1107 9.8795 4.4111 0.0000 3.8612
376 41 8.2659 24.7184 11.5506 3.7991 0.0000 3.8178
377 41 6.6025 23.1383 13.2225 4.2178 0.0000 4.0960
378 41 8.2891 24.7334 14.8766 3.7438 0.0000 4.1555
379 41 6.6410 23.1053 16.5222 3.0817 0.0000 4.1956
380 41 8.2561 24.7299 18.1879 3.0754 0.0000 4.4885
381 41 6.5761 23.0930 19.7793 2.9819 0.0000 3.8909
382 41 8.2315 24.7968 21.4143 3.2894 0.0000 3.4315
383 41 6.6272 23.1010 23.0754 3.1375 0.0000 3.9164
384 41 8.2459 24.7518 24.7437 3.0914 0.0000 4.3040
385 41 9.8874 0.0073 -0.0048 4.1968 0.0000 3.3664
386 41 11.5345 1.6515 1.5762 3.7925 0.0000 4.0914
387 41 9.8915 -0.0078 3.3108 4.3867 0.0000 3.9266
388 41 11.5176 1.6586 4.9262 4.0693 0.0000 3.3381
389 41 9.8360 0.0331 6.5841 4.1109 0.0000 4.0643
390 41 11.5460 1.6503 8.2856 4.0841 0.0000 4.5146
391 41 9.9120 0.0079 9.8854 4.2401 0.0000 3.7656
392 41 11.5913 1.6344 11.5198 3.4920 0.0000 3.5213
393 41 9.9095 -0.0528 13.1370 2.9983 0.0000 3.8561
394 41 11.5594 1.6259 14.8754 3.8559 0.0000 3.8937
395 41 9.9284 -0.0161 16.5144 3.9757 0.0000 3.4294
396 41 11.5605 1.7371 18.1310 3.1111 0.0000 3.9446
397 41 9.9246 -0.0143 19.7511 3.2929 0.0000 4.3653
398 41 11.5244 1.6251 21.4198 3.1499 0.0000 4.0474
399 41 9.8524 -0.0149 23.1248 3.9183 0.0000 3.7185
400 41 11.5651 1.6405 24.7461 4.0387 0.0000 4.1508
401 41 9.9446 3.3363 0.0022 3.8137 0.0000 3.8817
402 41 11.5376 4.9468 1.6477 3.4832 0.0000 3.7023
403 41 9.8796 3.2772 3.2997 3.2047 0.0000 4.3128
404 41 11.5527 4.9341 4.9462 3.1258 0.0000 3.4641
405 41 9.8964 3.3157 6.6256 3.3648 0.0000 4.1287
406 41 11.5818 4.9778 8.2230 3.8630 0.0000 3.6206
407 41 9.9025 3.3016 9.8668 3.5914 0.0000 3.5250
408 41 11.5803 4.9692 11.5612 3.9525 0.0000 3.9715
409 41 9.9326 3.2986 13.1731 3.7042 0.0000 3.6982
410 41 11.5143 4.9929 14.8444 3.7957 0.0000 4.2929
411 41 9.9570 3.3236 16.5089 3.6494 0.0000 4.0438
412 41 11.5564 4.9518 18.1600 4.0237 0.0000 4.0898
413 41 9.9154 3.3117 19.7955 3.5621 0.0000 3.7534
414 41 11.5649 4.9549 21.4168 4.2762 0.0000 3.6624
415 41 9.8762 3.2650 23.1366 4.3835 0.0000 3.8110
416 41 11.5350 4.9574 24.7509 4.1994 0.0000 4.5012
417 41 9.9277 6.6387 -0.0013 3.1141 0.0000 4.1977
418 41 11.5231 8.2630 1.6273 3.7558 0.0000 4.0432
419 41 9.9179 6.5798 3.2802 3.0172 0.0000 3.9185
420 41 11.5771 8.2409 4.9546 3.9767 0.0000 3.4253
421 41 9.9006 6.5778 6.5933 4.4005 0.0000 4.1887
422 41 11.5611 8.2782 8.2315 3.5624 0.0000 4.2395
423 41 9.8748 6.5374 9.8825 3.5119 0.0000 4.1072
424 41 11.5426 8.2417 11.5727 3.5367 0.0000 4.2026
425 41 9.8500 6.6272 13.1656 3.6779 0.0000 3.9169
426 41 11.5310 8.2915 14.8263 3.2780 0.0000 3.3914
427 41 9.8579 6.5615 16.5046 3.5367 0.0000 3.9880
428 41 11.5926 8.2550 18.1374 3.7370 0.0000 3.7157
429 41 9.9213 6.6472 19.7702 3.9935 0.0000 3.8301
430 41 11.6128 8.2421 21.4629 4.0702 0.0000 3.7513
431 41 9.9271 6.5901 23.0719 3.1504 0.0000 3.4455
432 41 11.4720 8.2571 24.7560 3.7011 0.0000 4.1272
433 41 9.8839 9.9276 -0.0457 3.3489 0.0000 4.0350
434 41 11.5402 11.5546 1.6282 3.0077 0.0000 3.9576
435 41 9.8987 9.9181 3.2993 3.7202 0.0000 3.6530
436 41 11.5502 11.5682 4.9894 3.0465 0.0000 3.7523
437 41 9.9076 9.9136 6.6385 3.2717 0.0000 4.2416
438 41 11.5593 11.5822 8.3065 3.9846 0.0000 4.2216
439 41 9.9114 9.9540 9.8804 3.2725 0.0000 3.5334
440 41 11.5657 11.5503 11.5512 3.2523 0.0000 3.9281
441 41 9.8992 9.9205 13.1781 4.2637 0.0000 3.9377
442 41 11.5082 11.5364 14.8765 3.6044 0.0000 3.4394
443 41 9.8925 9.9169 16.4962 3.6811 0.0000 4.0575
444 41 11.5448 11.5313 18.1536 3.5325 0.0000 3.9449
445 41 9.9207 9.8770 19.7556 3.0084 0.0000 3.6871
446 41 11.6016 11.6168 21.4472 3.8897 0.0000 3.7793
447 41 9.9444 9.9241 23.1054 3.3410 0.0000 3.4185
448 41 11.5461 11.5480 24.7557 4.4391 0.0000 4.1954
449 41 9.8791 13.2145 -0.0039 3.8613 0.0000 4.0232
450 41 11.5719 14.8576 1.6584 3.2629 0.0000 4.3222
451 41 9.9259 13.2111 3.2756 4.4520 0.0000 4.2242
452 41 11.5472 14.8343 4.9346 3.5110 0.0000 3.3778
453 41 9.9513 13.1598 6.5917 4.0628 0.0000 4.1547
454 41 11.5453 14.8607 8.2137 2.9947 0.0000 3.4993
455 41 9.8884 13.2238 9.9077 3.8365 0.0000 4.4612
456 41 11.5645 14.8732 11.5162 3.4066 0.0000 3.6801
457 41 9.8724 13.1768 13.1990 3.2492 0.0000 4.1933
458 41 11.5396 14.8323 14.8478 3.2659 0.0000 3.9305
459 41 9.8949 13.1973 16.5163 3.0818 0.0000 3.9460
460 41 11.5614 14.8786 18.1910 3.9865 0.0000 3.9566
461 41 9.9533 13.2125 19.7996 3.7768 0.0000 3.6966
462 41 11.5520 14.8656 21.4973 4.1884 0.0000 3.8275
463 41 9.8898 13.2098 23.0990 3.1828 0.0000 4.1767
464 41 11.5037 14.8012 24.7369 3.2333 0.0000 4.3313
465 41 9.9162 16.4819 0.0035 3.6638 0.0000 3.3943
466 41 11.5495 18.1462 1.6629 3.1596 0.0000 4.4763
467 41 9.9127 16.4850 3.2972 4.1366 0.0000 3.9432
468 41 11.5383 18.1687 4.9420 3.7037 0.0000 3.7760
469 41 9.8925 16.5516 6.6214 4.4247 0.0000 3.9359
470 41 11.5173 18.1877 8.2579 3.9800 0.0000 4.4941
471 41 9.8985 16.5414 9.9052 3.7008 0.0000 3.7735
472 41 11.5038 18.1812 11.5266 3.5276 0.0000 3.9289
473 41 9.8607 16.4943 13.1970 3.4914 0.0000 3.5749
474 41 11.5199 18.1402 14.8524 3.4269 0.0000 4.1546
475 41 9.8859 16.5048 16.4943 3.9416 0.0000 3.3704
476 41 11.5999 18.1825 18.1658 3.2301 0.0000 3.4442
477 41 9.9101 16.4785 19.8021 3.4488 0.0000 4.2275
478 41 11.5392 18.1622 21.4467 3.7570 0.0000 3.4686
479 41 9.9063 16.4830 23.0800 4.0695 0.0000 3.4014
480 41 11.5916 18.1600 24.7351 3.2610 0.0000 3.4324
481 41 9.8866 19.8032 0.0040 3.9422 0.0000 3.7583
482 41 11.5501 21.4472 1.6450 3.2415 0.0000 3.7791
483 41 9.8997 19.8311 3.2660 2.9927 0.0000 3.5796
484 41 11.5609 21.4631 4.9184 3.4842 0.0000 3.9182
485 41 9.8829 19.7898 6.6100 3.2627 0.0000 3.7776
486 41 11.5429 21.4325 8.2619 3.6835 0.0000 4.2343
487 41 9.8875 19.7590 9.9554 3.9627 0.0000 4.1090
488 41 11.5777 21.4442 11.5586 3.1017 0.0000 3.7514
489 41 9.9459 19.8081 13.1692 3.9202 0.0000 3.5995
490 41 11.5428 21.4727 14.8331 4.4391 0.0000 4.4287
491 41 9.8821 19.8124 16.4820 3.3002 0.0000 4.1268
492 41 11.5563 21.4465 18.0996 3.9582 0.0000 3.9072
493 41 9.8709 19.7908 19.8068 3.6986 0.0000 4.0934
494 41 11.5397 21.4493 21.4840 4.1886 0.0000 3.4980
495 41 9.8954 19.8097 23.0900 3.1087 0.0000 3.4944
496 41 11.5821 21.4453 24.7086 4.0962 0.0000 3.5983
497 41 9.8951 23.1293 0.0185 3.5310 0.0000 3.4021
498 41 11.5555 24.7614 1.5985 3.3099 0.0000 3.4534
499 41 9.9442 23.1145 3.2521 3.6730 0.0000 3.8180
500 41 11.5252 24.7729 4.9742 4.4212 0.0000 3.9748
501 41 9.9282 23.1450 6.6312 3.8844 0.0000 3.8074
502 41 11.5904 24.7431 8.2665 3.2767 0.0000 4.3053
503 41 9.9382 23.0837 9.9309 4.4563 0.0000 3.3398
504 41 11.5237 24.7430 11.5657 4.3615 0.0000 4.2724
505 41 9.9270 23.0924 13.1710 3.9872 0.0000 4.0274
506 41 11.5514 24.7802 14.8295 3.6699 0.0000 4.2221
507 41 9.9019 23.1136 16.4926 3.4702 0.0000 4.4626
508 41 11.5326 24.7050 18.1558 3.2838 0.0000 3.9586
509 41 9.8875 23.1489 19.7474 4.0222 0.0000 3.8040
510 41 11.5395 24.7311 21.4587 3.9991 0.0000 3.9996
511 41 9.9390 23.0998 23.1159 3.7181 0.0000 4.4548
512 41 11.5380 24.7877 24.7275 3.4355 0.0000 3.7709
513 41 13.2177 -0.0233 0.0034 3.9117 0.0000 4.1941
514 41 14.8132 1.6258 1.6540 4.4432 0.0000 3.8509
515 41 13.1732 0.0004 3.2979 4.3603 0.0000 4.3455
516 41 14.9082 1.6474 4.9345 3.5287 0.0000 3.8355
517 41 13.2469 0.0125 6.5794 3.2615 0.0000 3.4900
518 41 14.8759 1.6685 8.2113 3.2346 0.0000 4.3071
519 41 13.2122 -0.0178 9.9288 3.2558 0.0000 3.6383
520 41 14.8393 1.6377 11.6033 4.1237 0.0000 3.6737
521 41 13.2056 0.0370 13.1914 4.0855 0.0000 3.3838
522 41 14.8637 1.6200 14.8499 3.8165 0.0000 3.3966
523 41 13.1713 0.0440 16.5011 4.1873 0.0000 4.1730
524 41 14.8563 1.6266 18.1508 4.0448 0.0000 3.7850
525 41 13.2372 -0.0028 19.8107 4.1127 0.0000 3.4657
526 41 14.8264 1.6747 21.4616 3.7504 0.0000 4.4037
527 41 13.1495 -0.0124 23.0985 3.8783 0.0000 3.7731
528 41 14.8561 1.6424 24.7657 3.3469 0.0000 3.3586
529 41 13.2015 3.3155 -0.0114 3.1434 0.0000 3.7582
530 41 14.8315 4.9159 1.6228 4.0152 0.0000 4.3786
531 41 13.2423 3.2809 3.2505 3.3807 0.0000 3.6569
532 41 14.8297 4.9263 4.9286 2.9780 0.0000 3.7936
533 41 13.1845 3.2748 6.5850 4.2988 0.0000 3.9379
534 41 14.8305 4.9299 8.2392 4.0733 0.0000 3.5081
535 41 13.2706 3.3526 9.9110 4.0204 0.0000 3.9689
536 41 14.8212 4.9791 11.5810 4.0179 0.0000 4.3969
537 41 13.2023 3.2877 13.1536 3.4316 0.0000 4.1238
538 41 14.8510 4.9439 14.8487 3.1343 0.0000 3.8375
539 41 13.2145 3.3021 16.5051 3.6430 0.0000 3.5049
540 41 14.8840 4.9029 18.1953 4.4280 0.0000 4.3763
541 41 13.2092 3.2851 19.7997 3.5159 0.0000 4.3007
542 41 14.8201 4.9724 21.4811 3.1443 0.0000 3.7613
543 41 13.2045 3.3200 23.1291 4.1907 0.0000 3.4489
544 41 14.8480 4.9330 24.7547 3.6477 0.0000 4.1853
545 41 13.1920 6.6081 -0.0140 3.9725 0.0000 3.8076
546 41 14.8619 8.2986 1.6425 3.2744 0.0000 3.9601
547 41 13.2462 6.5953 3.2783 3.1195 0.0000 4.4458
548 41 14.8396 8.2905 4.9632 3.6610 0.0000 3.3550
549 41 13.2457 6.6089 6.5638 3.7044 0.0000 3.5605
550 41 14.8657 8.2228 8.2645 3.8365 0.0000 3.8620
551 41 13.1734 6.6099 9.9269 3.3635 0.0000 4.0062
552 41 14.8516 8.2074 11.5609 3.0091 0.0000 3.6552
553 41 13.1952 6.5647 13.2027 3.8323 0.0000 3.6215
554 41 14.8630 8.2291 14.8536 3.0424 0.0000 4.0165
555 41 13.2148 6.5832 16.4995 4.0518 0.0000 3.3978
556 41 14.8498 8.2930 18.1679 3.6070 0.0000 3.3423
557 41 13.1851 6.5668 19.8246 3.7525 0.0000 4.0567
558 41 14.8329 8.2438 21.4773 3.2260 0.0000 3.4984
559 41 13.2484 6.5663 23.0988 3.2005 0.0000 3.8841
560 41 14.8211 8.2424 24.7281 3.6502 0.0000 3.5949
561 41 13.1692 9.8674 -0.0280 3.5721 0.0000 4.3523
562 41 14.8816 11.5995 1.6459 3.4784 0.0000 4.4830
563 41 13.2155 9.8873 3.3309 3.1982 0.0000 3.8745
564 41 14.8367 11.5868 4.9779 3.8223 0.0000 3.3684
565 41 13.2075 9.9036 6.6160 3.3766 0.0000 3.9229
566 41 14.8761 11.5491 8.2702 3.2720 0.0000 4.2824
567 41 13.1955 9.8984 9.8989 4.1371 0.0000 4.2931
568 41 14.8453 11.5470 11.5981 4.2316 0.0000 3.7341
569 41 13.1794 9.9010 13.2117 3.1975 0.0000 3.7715
570 41 14.8360 11.5590 14.8263 3.3406 0.0000 3.8293
571 41 13.2244 9.9356 16.5471 3.5352 0.0000 4.2269
572 41 14.9028 11.5486 18.1864 3.8342 0.0000 3.8523
573 41 13.1914 9.9033 19.8393 3.4912 0.0000 4.5131
574 41 14.8892 11.5357 21.4914 3.0927 0.0000 4.2549
575 41 13.1400 9.8959 23.0919 3.4430 0.0000 3.9272
576 41 14.8344 11.5400 24.7615 3.2504 0.0000 4.4899
577 41 13.1972 13.2066 0.0010 3.2386 0.0000 3.7890
578 41 14.8651 14.8384 1.6046 3.5003 0.0000 4.0055
579 41 13.1778 13.1772 3.2904 3.7667 0.0000 3.7669
580 41 14.8526 14.8342 4.9663 3.1518 0.0000 4.2135
581 41 13.1951 13.2256 6.6009 4.4274 0.0000 4.2390
582 41 14.8680 14.8092 8.2881 4.1337 0.0000 4.0664
583 41 13.2348 13.2147 9.9346 3.8970 0.0000 3.3995
584 41 14.8933 14.8963 11.5425 3.9394 0.0000 3.4841
585 41 13.1655 13.2014 13.2020 3.4509 0.0000 3.5970
586 41 14.8697 14.8737 14.8825 4.2891 0.0000 3.9905
587 41 13.2283 13.1994 16.4985 3.0943 0.0000 3.8916
588 41 14.8225 14.8444 18.1450 4.1738 0.0000 3.5798
589 41 13.2153 13.1799 19.7948 3.9286 0.0000 3.6745
590 41 14.8262 14.8431 21.4553 4.4057 0.0000 3.3828
591 41 13.2135 13.1981 23.0872 4.0305 0.0000 4.4320
592 41 14.8585 14.8405 24.7280 3.0331 0.0000 3.5124
593 41 13.1461 16.5511 0.0024 4.0651 0.0000 3.5560