ITEM: TIMESTEP
0
ITEM: NUMBER OF ATOMS
864
ITEM: BOX BOUNDS pp pp pp
0.0 24.4680
0.0 24.4680
0.0 24.4680
ITEM: ATOMS id type x y z error strain stiffness
1 79 0.0160 -0.0273 0.0105 2.3917 0.0000 2.6795
2 79 2.0466 2.0751 0.0037 2.7079 0.0000 2.3171
3 79 2.0680 -0.0136 2.0708 3.2776 0.0000 2.8012
4 79 -0.0154 2.0644 2.0198 2.3178 0.0000 2.2094
5 79 0.0088 -0.0316 4.0599 2.8029 0.0000 2.6012
6 79 2.0311 2.0742 4.0920 2.7121 0.0000 2.7684
7 79 2.0275 -0.0071 6.1305 2.5760 0.0000 2.3984
8 79 0.0022 2.0499 6.0910 3.1418 0.0000 2.2390
9 79 -0.0129 -0.0250 8.1364 3.2126 0.0000 2.1366
10 79 2.0407 2.0686 8.1587 3.0132 0.0000 2.7861
11 79 2.0192 0.0223 10.2055 3.2643 0.0000 2.1155
12 79 -0.0012 2.0880 10.1616 2.8848 0.0000 2.3623
13 79 -0.0321 0.0073 12.2720 3.1318 0.0000 2.5097
14 79 2.0182 2.0292 12.2269 2.6392 0.0000 2.6182
15 79 2.0421 -0.0360 14.2503 2.3460 0.0000 2.2029
16 79 -0.0062 2.0087 14.2711 2.6530 0.0000 2.8398
17 79 0.0091 0.0354 16.2983 3.0704 0.0000 2.6493
18 79 2.0371 2.0041 16.3089 2.4500 0.0000 2.3736
19 79 2.0375 0.0544 18.3544 3.1171 0.0000 2.1814
20 79 -0.0504 2.0198 18.3659 2.3889 0.0000 2.4586
21 79 -0.0103 0.0133 20.4211 2.7407 0.0000 2.7453
22 79 2.0889 2.0394 20.3638 3.0741 0.0000 2.4828
23 79 2.0326 0.0334 22.3914 3.1787 0.0000 2.3948
24 79 -0.0362 2.0533 22.4274 3.3618 0.0000 2.7796
25 79 0.0196 4.0745 0.0229 3.0992 0.0000 2.7113
26 79 2.0468 6.1435 -0.0028 2.7623 0.0000 2.3136
27 79 2.0463 4.0757 2.0527 2.7701 0.0000 2.5946
28 79 0.0114 6.1277 2.0497 2.5652 0.0000 2.1710
29 79 0.0002 4.0705 4.0477 2.4653 0.0000 2.8015
30 79 2.0261 6.0951 4.0645 3.4205 0.0000 2.2005
31 79 2.0343 4.0881 6.1272 3.2329 0.0000 2.1240
32 79 0.0009 6.1488 6.1068 3.1270 0.0000 2.7752
33 79 -0.0040 4.0399 8.1403 2.4631 0.0000 2.2286
34 79 2.0288 6.0842 8.1276 3.2494 0.0000 2.6618
35 79 2.0743 4.0653 10.2065 3.1571 0.0000 2.3859
36 79 0.0067 6.1156 10.1718 2.7998 0.0000 2.3189
37 79 0.0021 4.0941 12.2362 3.1027 0.0000 2.6153
38 79 2.0237 6.1443 12.2129 3.1880 0.0000 2.3733
39 79 2.0587 4.0906 14.2985 2.3790 0.0000 2.6353
40 79 -0.0039 6.1058 14.2749 2.8258 0.0000 2.1421
41 79 0.0250 4.0619 16.2934 2.5639 0.0000 2.4013
42 79 2.0332 6.1065 16.3429 2.8524 0.0000 2.2717
43 79 2.0339 4.0970 18.3494 2.8003 0.0000 2.3373
44 79 -0.0204 6.1291 18.3383 2.7409 0.0000 2.4324
45 79 0.0185 4.0457 20.3771 2.7062 0.0000 2.4021
46 79 2.0285 6.1159 20.3954 2.6995 0.0000 2.6964
47 79 2.0519 4.1004 22.4647 2.3844 0.0000 2.7545
48 79 -0.0600 6.1146 22.4011 2.6696 0.0000 2.6492
49 79 -0.0117 8.1512 0.0073 3.2829 0.0000 2.3499
50 79 2.0308 10.2173 0.0167 2.9144 0.0000 2.6567
51 79 2.0627 8.1560 2.0309 2.9270 0.0000 2.2850
52 79 0.0075 10.1760 2.0625 2.5980 0.0000 2.4812
53 79 -0.0200 8.1902 4.0773 2.3206 0.0000 2.4951
54 79 2.0322 10.1742 4.1040 3.2886 0.0000 2.2347
55 79 2.0117 8.1518 6.0801 2.8539 0.0000 2.2506
56 79 -0.0397 10.1957 6.0871 2.3477 0.0000 2.2151
57 79 0.0041 8.1261 8.1817 3.3740 0.0000 2.5976
58 79 2.0465 10.1778 8.1772 2.4348 0.0000 2.7568
59 79 2.0797 8.1442 10.2221 3.3344 0.0000 2.3767
60 79 0.0270 10.2306 10.1805 2.5578 0.0000 2.5425
61 79 -0.0156 8.1354 12.2299 3.0326 0.0000 2.6232
62 79 2.0291 10.2297 12.2328 2.6889 0.0000 2.4513
63 79 2.0426 8.1379 14.2770 2.4808 0.0000 2.3171
64 79 -0.0137 10.2020 14.2692 2.3279 0.0000 2.7695
65 79 -0.0151 8.1625 16.2901 2.5037 0.0000 2.5727
66 79 2.0499 10.2491 16.2900 3.0082 0.0000 2.1263
67 79 2.0060 8.1643 18.3681 3.2673 0.0000 2.1199
68 79 -0.0337 10.2323 18.3671 3.0836 0.0000 2.6678
69 79 -0.0020 8.1766 20.3742 2.4546 0.0000 2.3794
70 79 2.0237 10.2213 20.4058 2.4257 0.0000 2.2051
71 79 2.0499 8.1293 22.4516 2.5297 0.0000 2.4209
72 79 0.0297 10.1403 22.4385 2.4250 0.0000 2.7650
73 79 0.0102 12.2456 -0.0217 2.3648 0.0000 2.3219
74 79 2.0772 14.3060 -0.0078 2.6788 0.0000 2.1420
75 79 2.0351 12.2397 2.0592 2.6224 0.0000 2.4820
76 79 -0.0184 14.2507 2.0812 2.4695 0.0000 2.1043
77 79 0.0010 12.1733 4.0495 3.1592 0.0000 2.6270
78 79 2.0356 14.2675 4.1052 2.9304 0.0000 2.7659
79 79 2.0469 12.2527 6.1106 2.8863 0.0000 2.5025
80 79 0.0184 14.3088 6.1538 2.5498 0.0000 2.2300
81 79 0.0475 12.2243 8.1160 2.9927 0.0000 2.7912
82 79 2.0430 14.2682 8.1705 2.5726 0.0000 2.2360
83 79 2.0471 12.2223 10.2095 2.7306 0.0000 2.7696
84 79 0.0074 14.2740 10.1930 2.7362 0.0000 2.4466
85 79 -0.0244 12.2753 12.2300 2.3165 0.0000 2.2467
86 79 2.0537 14.3015 12.2766 2.5820 0.0000 2.8399
87 79 2.0478 12.2244 14.2806 2.4460 0.0000 2.5312
88 79 -0.0409 14.2713 14.2457 2.9121 0.0000 2.1937
89 79 -0.0354 12.1872 16.2943 3.0487 0.0000 2.5034
90 79 2.0367 14.2758 16.3550 3.4282 0.0000 2.1149
91 79 2.0637 12.2458 18.3679 2.9144 0.0000 2.3440
92 79 -0.0268 14.2815 18.3446 2.3957 0.0000 2.1288
93 79 0.0322 12.2195 20.3732 2.3166 0.0000 2.3987
94 79 2.0740 14.2484 20.3989 3.3367 0.0000 2.5110
95 79 2.0257 12.2252 22.4314 2.4064 0.0000 2.3292
96 79 -0.0447 14.2114 22.3840 2.7714 0.0000 2.3369
97 79 0.0421 16.3043 0.0217 3.1536 0.0000 2.3394
98 79 2.0159 18.3254 0.0128 2.6839 0.0000 2.7182
99 79 2.0875 16.2932 2.0211 3.0641 0.0000 2.8438
100 79 0.0340 18.4017 2.0221 2.6822 0.0000 2.6175
101 79 -0.0123 16.2913 4.1136 3.0799 0.0000 2.6664
102 79 2.0329 18.3196 4.0641 2.4754 0.0000 2.1274
103 79 2.0194 16.3453 6.1024 2.6972 0.0000 2.7239
104 79 -0.0181 18.3735 6.1116 3.2718 0.0000 2.7069
105 79 -0.0145 16.3244 8.1379 2.6343 0.0000 2.6943
106 79 2.0317 18.3720 8.1364 3.2230 0.0000 2.6077
107 79 2.0115 16.3057 10.1759 3.2750 0.0000 2.7039
108 79 -0.0288 18.3745 10.1831 3.0848 0.0000 2.5936
109 79 -0.0067 16.3432 12.2115 3.3929 0.0000 2.1069
110 79 2.0786 18.3332 12.2103 2.4378 0.0000 2.4945
111 79 2.0515 16.2684 14.3217 2.8537 0.0000 2.5742
112 79 0.0030 18.3887 14.2814 2.5999 0.0000 2.4857
113 79 0.0447 16.3504 16.3016 2.4501 0.0000 2.8109
114 79 2.0454 18.3509 16.3010 2.9412 0.0000 2.2611
115 79 2.0436 16.3155 18.3731 2.3609 0.0000 2.2033
116 79 0.0116 18.3485 18.3471 3.3650 0.0000 2.1652
117 79 0.0055 16.3648 20.3879 2.3137 0.0000 2.6883
118 79 2.0224 18.3571 20.4081 3.2450 0.0000 2.2046
119 79 2.0470 16.3366 22.4524 2.7250 0.0000 2.6583
120 79 -0.0150 18.3340 22.3881 3.2138 0.0000 2.3020
121 79 0.0231 20.3928 0.0265 2.8912 0.0000 2.6302
122 79 2.0126 22.4510 -0.0033 2.3387 0.0000 2.8284
123 79 1.9993 20.3675 2.0549 2.7524 0.0000 2.2999
124 79 -0.0158 22.4546 2.0140 3.0510 0.0000 2.3173
125 79 0.0058 20.3363 4.0814 2.9695 0.0000 2.5054
126 79 2.0566 22.3967 4.0500 2.8631 0.0000 2.8105
127 79 2.0508 20.3757 6.1324 3.0638 0.0000 2.1947
128 79 -0.0124 22.4040 6.1024 2.6307 0.0000 2.7451
129 79 0.0423 20.3943 8.1587 3.0268 0.0000 2.3090
130 79 2.0218 22.4078 8.1830 2.4740 0.0000 2.5179
131 79 2.0430 20.3369 10.1875 2.5348 0.0000 2.8420
132 79 0.0381 22.4133 10.2151 2.4807 0.0000 2.1428
133 79 0.0366 20.3759 12.2177 3.1784 0.0000 2.8060
134 79 1.9992 22.4007 12.2220 2.3084 0.0000 2.5603
135 79 2.0105 20.3630 14.2484 2.3840 0.0000 2.5904
136 79 0.0129 22.4305 14.2930 3.0332 0.0000 2.7470
137 79 -0.0606 20.4046 16.3191 3.2692 0.0000 2.6740
138 79 2.0343 22.4359 16.3141 2.6354 0.0000 2.1700
139 79 2.0354 20.3756 18.3628 2.5819 0.0000 2.1652
140 79 -0.0237 22.4524 18.3087 3.2731 0.0000 2.7061
141 79 -0.0021 20.3745 20.3700 3.3639 0.0000 2.2579
142 79 2.0459 22.4118 20.3716 2.6910 0.0000 2.1874
143 79 2.0792 20.3872 22.3988 3.2358 0.0000 2.4290
144 79 -0.0147 22.3996 22.3973 3.3510 0.0000 2.4189
145 79 4.0617 0.0077 0.0143 2.9954 0.0000 2.8462
146 79 6.1074 2.0326 -0.0080 3.2131 0.0000 2.4285
147 79 6.0693 -0.0189 2.0219 3.3546 0.0000 2.2749
148 79 4.1286 2.0437 2.0306 2.6680 0.0000 2.8049
149 79 4.0998 0.0042 4.0667 2.5462 0.0000 2.3482
150 79 6.1358 2.0595 4.1122 3.4361 0.0000 2.2210
151 79 6.1130 -0.0176 6.1313 3.2331 0.0000 2.6590
152 79 4.0519 2.0214 6.1199 3.0018 0.0000 2.5905
153 79 4.0785 -0.0272 8.1213 3.2650 0.0000 2.7375
154 79 6.1307 1.9971 8.1308 2.3050 0.0000 2.7642
155 79 6.1122 0.0081 10.1884 2.6038 0.0000 2.4402
156 79 4.0881 2.0005 10.1887 3.3880 0.0000 2.6362
157 79 4.0763 -0.0236 12.2627 2.5912 0.0000 2.3079
158 79 6.0846 2.0286 12.2485 2.3214 0.0000 2.7540
159 79 6.1251 -0.0280 14.2237 2.9721 0.0000 2.7186
160 79 4.1001 2.0439 14.3070 2.3794 0.0000 2.6937
161 79 4.0560 -0.0377 16.3051 3.3367 0.0000 2.5867
162 79 6.1101 2.0040 16.3244 2.7602 0.0000 2.3570
163 79 6.0808 0.0108 18.3668 2.8917 0.0000 2.3294
164 79 4.1306 2.0249 18.3454 2.4194 0.0000 2.5160
165 79 4.1219 -0.0229 20.3982 3.3519 0.0000 2.4662
166 79 6.1410 2.0149 20.3645 2.6927 0.0000 2.5441
167 79 6.1046 0.0121 22.4200 2.7141 0.0000 2.1567
168 79 4.0562 2.0573 22.4598 2.4672 0.0000 2.1874
169 79 4.0930 4.0677 0.0242 2.5900 0.0000 2.5016
170 79 6.1336 6.1104 0.0070 2.4526 0.0000 2.6363
171 79 6.1314 4.0487 2.0429 2.6907 0.0000 2.7682
172 79 4.0798 6.1336 2.0191 2.9248 0.0000 2.3602
173 79 4.0693 4.0707 4.0712 2.9690 0.0000 2.6225
174 79 6.1606 6.1316 4.0906 3.2751 0.0000 2.5769
175 79 6.0805 4.0836 6.1250 2.6634 0.0000 2.6588
176 79 4.1118 6.1090 6.1130 2.9649 0.0000 2.4753
177 79 4.0571 4.1046 8.1460 3.1454 0.0000 2.1603
178 79 6.1326 6.1288 8.1374 3.4317 0.0000 2.7744
179 79 6.1532 4.0441 10.2198 2.7045 0.0000 2.7719
180 79 4.0748 6.1285 10.1702 2.4907 0.0000 2.5166
181 79 4.0770 4.0707 12.2167 2.4360 0.0000 2.5987
182 79 6.0954 6.1424 12.2621 3.2707 0.0000 2.7961
183 79 6.0318 4.0871 14.2525 3.1594 0.0000 2.3168
184 79 4.1027 6.1660 14.2846 3.3407 0.0000 2.7677
185 79 4.0683 4.0717 16.2976 3.1325 0.0000 2.1514
186 79 6.0966 6.1535 16.3282 2.7476 0.0000 2.6616
187 79 6.1059 4.0326 18.3690 3.3940 0.0000 2.1049
188 79 4.0792 6.0908 18.3805 2.3641 0.0000 2.4901
189 79 4.1050 4.0954 20.3549 2.9944 0.0000 2.2656
190 79 6.1494 6.1464 20.3680 3.2581 0.0000 2.6292
191 79 6.1228 4.0931 22.4237 2.8582 0.0000 2.1824
192 79 4.0633 6.1018 22.4060 2.7576 0.0000 2.4422
193 79 4.0338 8.1642 -0.0367 2.6590 0.0000 2.5195
194 79 6.1120 10.2318 -0.0088 2.4683 0.0000 2.1940
195 79 6.1539 8.1806 2.0448 2.4816 0.0000 2.1436
196 79 4.0557 10.1651 2.0685 3.3716 0.0000 2.4006
197 79 4.1077 8.1249 4.0577 3.3638 0.0000 2.7180
198 79 6.1400 10.1925 4.1035 2.5171 0.0000 2.2296
199 79 6.1337 8.1759 6.1616 2.4522 0.0000 2.8053
200 79 4.0591 10.2228 6.1306 3.2809 0.0000 2.7287
201 79 4.0643 8.1490 8.1459 3.1932 0.0000 2.7411
202 79 6.1217 10.1768 8.1374 2.3354 0.0000 2.4855
203 79 6.1331 8.1627 10.1683 3.2119 0.0000 2.4809
204 79 4.0908 10.2136 10.2255 3.0415 0.0000 2.1958
205 79 4.0684 8.1477 12.2315 2.9518 0.0000 2.4070
206 79 6.1091 10.1737 12.2182 2.3615 0.0000 2.2441
207 79 6.1334 8.1600 14.2752 2.4343 0.0000 2.4221
208 79 4.0537 10.1839 14.2892 2.5895 0.0000 2.8101
209 79 4.0714 8.1545 16.3347 3.3676 0.0000 2.2941
210 79 6.1651 10.2148 16.3271 3.1309 0.0000 2.2683
211 79 6.1422 8.1491 18.3081 2.9293 0.0000 2.6468
212 79 4.1455 10.1944 18.3770 3.3859 0.0000 2.1516
213 79 4.0432 8.1866 20.3556 2.5087 0.0000 2.1275
214 79 6.1180 10.2279 20.4129 2.5553 0.0000 2.2922
215 79 6.1515 8.1321 22.4510 2.5871 0.0000 2.8460
216 79 4.0484 10.2060 22.4277 2.9574 0.0000 2.7455
217 79 4.0786 12.1817 0.0346 2.4838 0.0000 2.5641
218 79 6.1082 14.2568 -0.0293 2.3870 0.0000 2.2414
219 79 6.1338 12.2341 2.0695 3.3588 0.0000 2.5299
220 79 4.0759 14.3002 2.0158 2.3741 0.0000 2.4776
221 79 4.0898 12.2017 4.0924 3.4524 0.0000 2.3233
222 79 6.0919 14.2652 4.0352 3.3730 0.0000 2.5452
223 79 6.1393 12.2454 6.1136 2.9869 0.0000 2.5839
224 79 4.0622 14.2815 6.1015 3.3640 0.0000 2.5036
225 79 4.0560 12.1766 8.1440 2.7490 0.0000 2.2006
226 79 6.1048 14.3165 8.1777 2.8928 0.0000 2.1702
227 79 6.1154 12.2492 10.2325 2.9202 0.0000 2.6561
228 79 4.0719 14.3194 10.1928 3.3852 0.0000 2.3533
229 79 4.0924 12.2472 12.2473 3.1429 0.0000 2.1744
230 79 6.1375 14.2520 12.2272 3.2984 0.0000 2.3062
231 79 6.1024 12.2076 14.3415 3.1306 0.0000 2.5177
232 79 4.0949 14.2742 14.3081 3.4296 0.0000 2.7407
233 79 4.0464 12.2466 16.3424 3.2540 0.0000 2.2505
234 79 6.1043 14.2653 16.3014 2.6395 0.0000 2.2074
235 79 6.1355 12.1902 18.3192 3.2067 0.0000 2.3476
236 79 4.1134 14.2946 18.3477 3.2960 0.0000 2.7277
237 79 4.0926 12.2144 20.3642 2.9566 0.0000 2.2266
238 79 6.1044 14.3348 20.3633 3.1288 0.0000 2.5114
239 79 6.1289 12.2274 22.4092 2.5739 0.0000 2.4641
240 79 4.0624 14.2768 22.4212 3.4287 0.0000 2.7959
241 79 4.0629 16.3132 0.0152 2.9293 0.0000 2.2325
242 79 6.1134 18.3546 -0.0124 2.8171 0.0000 2.1985
243 79 6.1112 16.3271 2.0457 2.5175 0.0000 2.1303
244 79 4.0744 18.3273 2.0704 3.3615 0.0000 2.3780
245 79 4.0801 16.3171 4.0617 2.7501 0.0000 2.7652
246 79 6.1353 18.3500 4.0792 3.0280 0.0000 2.2278
247 79 6.1379 16.3322 6.1143 3.4091 0.0000 2.5448
248 79 4.0235 18.3774 6.0490 2.9519 0.0000 2.8271
249 79 4.0664 16.3109 8.1509 3.0391 0.0000 2.7876
250 79 6.0975 18.3419 8.1438 2.7937 0.0000 2.5718
251 79 6.1269 16.2994 10.1924 3.4011 0.0000 2.7365
252 79 4.0705 18.3723 10.2113 2.4544 0.0000 2.6886
253 79 4.0594 16.3705 12.2271 2.3841 0.0000 2.1650
254 79 6.1586 18.3865 12.2480 2.5112 0.0000 2.3593
255 79 6.0972 16.3069 14.2860 2.5342 0.0000 2.7987
256 79 4.0376 18.3850 14.2633 3.2582 0.0000 2.1503
257 79 4.0710 16.2886 16.3362 3.2641 0.0000 2.2621
258 79 6.1302 18.3589 16.3191 2.5305 0.0000 2.5020
259 79 6.1650 16.3020 18.3834 3.1433 0.0000 2.5955
260 79 4.0688 18.3750 18.3671 2.3835 0.0000 2.5014
261 79 4.0490 16.3323 20.3767 3.0389 0.0000 2.4160
262 79 6.1125 18.3643 20.3639 2.8305 0.0000 2.2393
263 79 6.0856 16.3233 22.4304 2.4364 0.0000 2.1637
264 79 4.1199 18.3304 22.4385 2.3066 0.0000 2.7356
265 79 4.0801 20.4084 0.0056 2.5635 0.0000 2.1706
266 79 6.1570 22.4362 0.0008 2.3483 0.0000 2.3357
267 79 6.0894 20.3716 2.0598 3.2577 0.0000 2.2477
268 79 4.0551 22.4010 2.0445 3.0658 0.0000 2.2392
269 79 4.0334 20.3301 4.0662 3.4204 0.0000 2.1166
270 79 6.1083 22.4266 4.0871 2.6304 0.0000 2.3319
271 79 6.1295 20.3667 6.1687 2.3339 0.0000 2.5207
272 79 4.0654 22.4627 6.1107 2.9063 0.0000 2.4365
273 79 4.0571 20.4174 8.1905 2.7611 0.0000 2.1192
274 79 6.1029 22.4259 8.1588 2.8240 0.0000 2.4383
275 79 6.0495 20.4230 10.1589 2.9748 0.0000 2.3424
276 79 4.0655 22.4578 10.1729 3.2337 0.0000 2.4272
277 79 4.0629 20.3822 12.2209 3.4265 0.0000 2.6375
278 79 6.1378 22.4280 12.2418 2.7587 0.0000 2.3676
279 79 6.0958 20.3890 14.2768 3.2171 0.0000 2.2713
280 79 4.0637 22.4121 14.3195 3.1331 0.0000 2.7436
281 79 4.0803 20.4329 16.2938 2.7723 0.0000 2.2564
282 79 6.1120 22.4163 16.2998 2.9753 0.0000 2.3969
283 79 6.1181 20.3826 18.3442 2.4594 0.0000 2.5586
284 79 4.0549 22.4336 18.3747 2.9869 0.0000 2.8107
285 79 4.0710 20.4053 20.3779 3.1542 0.0000 2.7119
286 79 6.1112 22.4452 20.3637 3.1876 0.0000 2.7074
287 79 6.0894 20.3626 22.4340 2.4465 0.0000 2.5084
288 79 4.1049 22.4210 22.4516 2.7257 0.0000 2.5223
289 79 8.1948 -0.0146 -0.0458 2.7089 0.0000 2.3423
290 79 10.1472 2.0435 0.0155 2.7981 0.0000 2.6249
291 79 10.1948 -0.0060 2.0184 2.5238 0.0000 2.6834
292 79 8.1498 2.0461 2.0323 2.4306 0.0000 2.2708
293 79 8.1134 -0.0092 4.0917 2.5954 0.0000 2.2753
294 79 10.1667 2.0433 4.0415 2.5972 0.0000 2.2744
295 79 10.1630 -0.0111 6.1223 2.5237 0.0000 2.6562
296 79 8.1719 2.0441 6.1349 2.8770 0.0000 2.6509
297 79 8.1775 0.0289 8.1393 2.3035 0.0000 2.4649
298 79 10.1728 2.0528 8.1310 3.0429 0.0000 2.3381
299 79 10.2121 -0.0331 10.1952 2.5708 0.0000 2.2206
300 79 8.1561 2.0518 10.2020 2.5120 0.0000 2.2474
301 79 8.1718 -0.0065 12.2079 3.2357 0.0000 2.8410
302 79 10.1750 2.0493 12.2335 2.3284 0.0000 2.3687
303 79 10.1785 -0.0026 14.3040 3.0441 0.0000 2.7591
304 79 8.1624 2.0113 14.2823 2.7474 0.0000 2.4231
305 79 8.1574 -0.0135 16.2982 3.0118 0.0000 2.2014
306 79 10.1711 2.0296 16.3252 2.9630 0.0000 2.5128
307 79 10.2342 0.0256 18.3280 2.3071 0.0000 2.7657
308 79 8.1291 2.0545 18.3120 2.8098 0.0000 2.1438
309 79 8.1405 -0.0136 20.4272 3.2370 0.0000 2.7484
310 79 10.2201 2.0149 20.4018 2.3905 0.0000 2.4669
311 79 10.2029 0.0021 22.3896 2.9837 0.0000 2.2434
312 79 8.1740 2.0272 22.3856 3.1391 0.0000 2.7435
313 79 8.1041 4.0691 0.0223 2.7240 0.0000 2.3309
314 79 10.2124 6.1329 0.0246 2.8387 0.0000 2.3388
315 79 10.1604 4.0728 2.0281 2.6469 0.0000 2.6695
316 79 8.1439 6.0799 2.0542 3.2983 0.0000 2.8429
317 79 8.1075 4.0490 4.0760 3.0379 0.0000 2.7586
318 79 10.1932 6.1242 4.1005 3.2025 0.0000 2.6508
319 79 10.2018 4.0257 6.0569 2.8166 0.0000 2.3049
320 79 8.1479 6.0893 6.1278 2.6151 0.0000 2.1386
321 79 8.1811 4.0517 8.1806 3.0260 0.0000 2.3735
322 79 10.2181 6.1123 8.1578 3.1523 0.0000 2.5814
323 79 10.1642 4.0915 10.1885 3.0983 0.0000 2.6661
324 79 8.1451 6.1401 10.1921 3.1428 0.0000 2.5231
325 79 8.1732 4.0702 12.1999 3.4106 0.0000 2.5186
326 79 10.2414 6.0921 12.2494 3.0058 0.0000 2.7525
327 79 10.2220 4.0691 14.3008 3.2070 0.0000 2.5525
328 79 8.1731 6.1444 14.2944 2.5941 0.0000 2.5467
329 79 8.1661 4.0358 16.3608 3.2887 0.0000 2.1048
330 79 10.1807 6.1253 16.3525 2.7337 0.0000 2.4494
331 79 10.2576 4.0390 18.3419 2.7097 0.0000 2.3921
332 79 8.1799 6.1078 18.3183 3.3237 0.0000 2.3861
333 79 8.1449 4.0338 20.4029 2.4663 0.0000 2.1716
334 79 10.1931 6.1377 20.4115 2.4227 0.0000 2.6348
335 79 10.1816 4.1029 22.4502 3.4090 0.0000 2.3819
336 79 8.1507 6.1151 22.4359 3.0610 0.0000 2.6266
337 79 8.1546 8.1573 -0.0055 2.7100 0.0000 2.4883
338 79 10.1809 10.2386 0.0090 2.5528 0.0000 2.5885
339 79 10.1718 8.1591 2.0316 2.8918 0.0000 2.2753
340 79 8.1512 10.1983 2.0153 2.4725 0.0000 2.1333
341 79 8.1684 8.1821 4.0525 3.0371 0.0000 2.8015
342 79 10.1856 10.1696 4.0149 2.7732 0.0000 2.4204
343 79 10.1984 8.1585 6.1161 2.7661 0.0000 2.2654
344 79 8.1912 10.2029 6.1162 3.1846 0.0000 2.4735
345 79 8.1473 8.1485 8.1618 2.8301 0.0000 2.6768
346 79 10.1743 10.1780 8.1180 2.9132 0.0000 2.7407
347 79 10.1940 8.1797 10.2064 3.0615 0.0000 2.4548
348 79 8.1605 10.1781 10.1583 2.4686 0.0000 2.1733
349 79 8.1681 8.1479 12.1822 2.8309 0.0000 2.2134
350 79 10.2237 10.2264 12.2419 3.3673 0.0000 2.1585
351 79 10.2087 8.1856 14.2701 2.5103 0.0000 2.6720
352 79 8.2161 10.2314 14.3198 2.9749 0.0000 2.4911
353 79 8.1657 8.1627 16.3377 3.4047 0.0000 2.2554
354 79 10.1605 10.1739 16.2955 2.9809 0.0000 2.3351
355 79 10.1989 8.1762 18.3070 2.3527 0.0000 2.1474
356 79 8.1566 10.2269 18.3025 3.1636 0.0000 2.1986
357 79 8.1437 8.0954 20.3898 2.4117 0.0000 2.4135
358 79 10.1558 10.2185 20.3545 2.8822 0.0000 2.2345
359 79 10.1666 8.1740 22.4552 2.4884 0.0000 2.8423
360 79 8.1781 10.1952 22.3915 2.4223 0.0000 2.6884
361 79 8.1730 12.2527 0.0369 2.9204 0.0000 2.7629
362 79 10.2081 14.2719 0.0038 2.6013 0.0000 2.3227
363 79 10.2019 12.2143 2.0366 2.7942 0.0000 2.8460
364 79 8.1690 14.2935 2.0334 2.6736 0.0000 2.3861
365 79 8.1310 12.2284 4.0965 2.5928 0.0000 2.1156
366 79 10.1587 14.2660 4.0989 2.8741 0.0000 2.4535
367 79 10.1750 12.2447 6.0934 2.5789 0.0000 2.3943
368 79 8.1595 14.2834 6.1219 2.5089 0.0000 2.6568
369 79 8.1497 12.1925 8.1503 3.2060 0.0000 2.7361
370 79 10.2148 14.2529 8.1670 2.9931 0.0000 2.6667
371 79 10.1991 12.2478 10.1474 3.2625 0.0000 2.6681
372 79 8.1369 14.2876 10.2042 2.8511 0.0000 2.5497
373 79 8.1640 12.2728 12.2561 2.7250 0.0000 2.1055
374 79 10.2025 14.3016 12.2383 2.3584 0.0000 2.2316
375 79 10.2008 12.2542 14.2556 3.1410 0.0000 2.5138
376 79 8.1686 14.2447 14.2569 2.8015 0.0000 2.5145
377 79 8.1449 12.2096 16.3274 2.9520 0.0000 2.5725
378 79 10.2215 14.2548 16.3032 2.9409 0.0000 2.6387
379 79 10.1989 12.2650 18.3243 3.3388 0.0000 2.5019
380 79 8.1470 14.2801 18.3290 3.2998 0.0000 2.3780
381 79 8.1338 12.1910 20.3636 2.7360 0.0000 2.5306
382 79 10.1739 14.2726 20.4067 3.1096 0.0000 2.4704
383 79 10.2292 12.2425 22.4328 2.3850 0.0000 2.6846
384 79 8.1253 14.3003 22.4427 3.1584 0.0000 2.7972
385 79 8.1462 16.2790 -0.0020 2.4536 0.0000 2.6929
386 79 10.2340 18.3309 0.0050 2.4914 0.0000 2.3700
387 79 10.2223 16.3382 2.0376 2.8494 0.0000 2.4358
388 79 8.1849 18.3486 2.0552 2.4685 0.0000 2.5138
389 79 8.1391 16.3222 4.0803 3.2644 0.0000 2.1670
390 79 10.1905 18.3598 4.0649 3.3548 0.0000 2.6902
391 79 10.2017 16.3067 6.1247 2.4070 0.0000 2.1742
392 79 8.1660 18.3849 6.1592 3.4283 0.0000 2.4725
393 79 8.1669 16.3218 8.1285 3.3597 0.0000 2.6006
394 79 10.2099 18.3662 8.1811 2.8084 0.0000 2.1822
395 79 10.1945 16.3212 10.2203 3.0124 0.0000 2.5721
396 79 8.1563 18.3351 10.1802 2.8901 0.0000 2.4668
397 79 8.1577 16.3123 12.2203 3.0847 0.0000 2.6640
398 79 10.1693 18.3316 12.2231 2.9268 0.0000 2.1129
399 79 10.2141 16.3167 14.3121 3.4117 0.0000 2.3201
400 79 8.1949 18.3610 14.2506 3.2934 0.0000 2.4909
401 79 8.1698 16.3012 16.3103 3.1279 0.0000 2.5080
402 79 10.1928 18.3372 16.3569 2.9093 0.0000 2.7385
403 79 10.1946 16.2958 18.3580 2.9230 0.0000 2.3341
404 79 8.1906 18.3763 18.3431 3.2676 0.0000 2.7423
405 79 8.1874 16.3255 20.3595 2.7464 0.0000 2.4072
406 79 10.1806 18.3731 20.3681 3.0378 0.0000 2.7627
407 79 10.1816 16.3010 22.4417 2.4976 0.0000 2.6515
408 79 8.1800 18.3139 22.4415 2.5488 0.0000 2.6414
409 79 8.1907 20.3776 0.0133 2.9787 0.0000 2.1361
410 79 10.2115 22.4387 0.0209 3.4166 0.0000 2.3426
411 79 10.1667 20.3936 2.0430 3.3207 0.0000 2.5320
412 79 8.1653 22.4495 2.0014 2.9994 0.0000 2.5092
413 79 8.1576 20.3764 4.0931 3.2914 0.0000 2.7779
414 79 10.1815 22.4316 4.0488 2.6092 0.0000 2.2872
415 79 10.1875 20.3696 6.1330 3.3710 0.0000 2.6330
416 79 8.1698 22.4591 6.1447 2.6979 0.0000 2.1597
417 79 8.1668 20.3392 8.1401 3.3172 0.0000 2.7573
418 79 10.1834 22.4560 8.1664 2.6534 0.0000 2.5556
419 79 10.1574 20.3451 10.1796 2.5672 0.0000 2.8058
420 79 8.1343 22.4302 10.1633 3.4039 0.0000 2.1583
421 79 8.1472 20.4015 12.2365 2.9156 0.0000 2.3235
422 79 10.1625 22.4359 12.2743 3.4396 0.0000 2.6473
423 79 10.2237 20.3701 14.2987 2.7231 0.0000 2.2139
424 79 8.1539 22.4744 14.3033 3.2836 0.0000 2.4875
425 79 8.1338 20.3474 16.3426 3.0615 0.0000 2.5685
426 79 10.2107 22.4529 16.3167 2.3891 0.0000 2.1980
427 79 10.1549 20.4008 18.3346 2.5791 0.0000 2.5845
428 79 8.1714 22.4402 18.3168 2.4350 0.0000 2.5531
429 79 8.1689 20.3724 20.3602 3.1432 0.0000 2.4670
430 79 10.1472 22.4557 20.4252 2.6062 0.0000 2.7503
431 79 10.1747 20.4157 22.4152 2.4277 0.0000 2.6399
432 79 8.1784 22.4340 22.4029 3.1385 0.0000 2.2781
433 79 12.2613 -0.0382 -0.0222 3.1354 0.0000 2.5645
434 79 14.2674 2.0608 0.0075 2.3590 0.0000 2.7249
435 79 14.2447 0.0182 2.0200 2.7946 0.0000 2.7530
436 79 12.1610 2.0264 2.0334 2.3471 0.0000 2.1573
437 79 12.2195 -0.0089 4.1064 2.7652 0.0000 2.2834
438 79 14.2960 2.0348 4.0447 2.8548 0.0000 2.6247
439 79 14.2768 0.0162 6.1145 2.9657 0.0000 2.5762
440 79 12.2476 2.0525 6.1176 3.1824 0.0000 2.7732
441 79 12.2038 0.0086 8.1642 3.3823 0.0000 2.7505
442 79 14.2689 2.0441 8.1481 3.2121 0.0000 2.6080
443 79 14.2452 -0.0163 10.1522 3.2342 0.0000 2.1916
444 79 12.2518 2.0383 10.1945 3.2852 0.0000 2.7760
445 79 12.2231 -0.0057 12.2146 3.2025 0.0000 2.3831
446 79 14.2569 2.0002 12.2533 2.7145 0.0000 2.7226
447 79 14.2449 -0.0096 14.2708 2.5415 0.0000 2.8387
448 79 12.2037 2.0320 14.2794 3.1128 0.0000 2.6467
449 79 12.2300 0.0160 16.3336 3.1299 0.0000 2.5283
450 79 14.2715 2.0307 16.3058 3.0981 0.0000 2.7744
451 79 14.2662 0.0010 18.3545 3.0537 0.0000 2.4712
452 79 12.2199 2.0500 18.3212 2.3411 0.0000 2.1840
453 79 12.1873 0.0028 20.3416 3.2075 0.0000 2.1923
454 79 14.2681 2.0176 20.4159 2.9098 0.0000 2.8400
455 79 14.2783 -0.0175 22.4326 3.2455 0.0000 2.5841
456 79 12.2216 2.0481 22.4367 2.4850 0.0000 2.5018
457 79 12.2561 4.0648 0.0092 2.7665 0.0000 2.3412
458 79 14.2863 6.1510 0.0339 2.5726 0.0000 2.7632
459 79 14.2754 4.0444 2.0371 2.7272 0.0000 2.6798
460 79 12.2495 6.0473 2.0782 3.3598 0.0000 2.6506
461 79 12.2175 4.0665 4.0648 2.5843 0.0000 2.4747
462 79 14.2861 6.1340 4.0822 3.3674 0.0000 2.5311
463 79 14.2895 4.0861 6.1205 2.3271 0.0000 2.7251
464 79 12.2399 6.0903 6.1043 3.2700 0.0000 2.1119
465 79 12.2324 4.0887 8.1536 2.7180 0.0000 2.2272
466 79 14.2814 6.1116 8.1623 2.8732 0.0000 2.2148
467 79 14.2804 4.0547 10.1506 2.3894 0.0000 2.6784
468 79 12.2514 6.0954 10.1996 3.1529 0.0000 2.6865
469 79 12.2050 4.0162 12.2340 2.9802 0.0000 2.3866
470 79 14.2584 6.1248 12.2079 3.0251 0.0000 2.7065
471 79 14.2684 4.0860 14.2470 2.6823 0.0000 2.6415
472 79 12.2574 6.0987 14.2721 2.8868 0.0000 2.4544
473 79 12.1894 4.0883 16.3358 2.8037 0.0000 2.6323
474 79 14.2608 6.1416 16.2670 3.0238 0.0000 2.3306
475 79 14.2781 4.0936 18.3377 2.4355 0.0000 2.4912
476 79 12.2681 6.0727 18.3805 2.7417 0.0000 2.4645
477 79 12.2333 4.0965 20.4094 2.9935 0.0000 2.6775
478 79 14.2682 6.0773 20.3691 2.7044 0.0000 2.1571
479 79 14.2526 4.0541 22.4422 2.8528 0.0000 2.8178
480 79 12.2288 6.0939 22.4663 3.3189 0.0000 2.4413
481 79 12.1718 8.1606 -0.0356 3.3293 0.0000 2.1977
482 79 14.2614 10.2447 0.0189 3.2018 0.0000 2.1941
483 79 14.2995 8.1508 2.0281 3.3086 0.0000 2.6793
484 79 12.2157 10.1876 2.0625 2.6879 0.0000 2.2749
485 79 12.2397 8.1762 4.0399 3.1040 0.0000 2.2258
486 79 14.2649 10.2300 4.0839 2.4364 0.0000 2.2042
487 79 14.2301 8.1427 6.1500 2.3181 0.0000 2.5273
488 79 12.2508 10.1833 6.0931 3.2524 0.0000 2.5955
489 79 12.1920 8.1485 8.1327 2.4429 0.0000 2.4775
490 79 14.2686 10.1912 8.1337 2.6907 0.0000 2.6747
491 79 14.2715 8.1225 10.2243 3.4014 0.0000 2.5748
492 79 12.2489 10.2118 10.2176 2.4158 0.0000 2.3146
493 79 12.2195 8.1591 12.2421 2.6784 0.0000 2.7690
494 79 14.3263 10.2188 12.2502 3.0319 0.0000 2.4930
495 79 14.2731 8.1788 14.2768 3.0560 0.0000 2.3977
496 79 12.2744 10.1916 14.2627 2.9595 0.0000 2.2296
497 79 12.2448 8.1638 16.3197 2.3304 0.0000 2.7434
498 79 14.2784 10.2150 16.3308 2.6850 0.0000 2.4908
499 79 14.3133 8.1232 18.3284 3.3612 0.0000 2.6816
500 79 12.2199 10.1790 18.3412 3.2811 0.0000 2.5025
501 79 12.1769 8.1525 20.4053 2.5107 0.0000 2.8294
502 79 14.2874 10.2431 20.4159 2.8224 0.0000 2.4771
503 79 14.2832 8.1573 22.4507 3.0485 0.0000 2.6164
504 79 12.2128 10.1139 22.4427 2.8182 0.0000 2.3892
505 79 12.1968 12.2576 0.0036 2.4146 0.0000 2.1707
506 79 14.2816 14.2318 -0.0166 2.3107 0.0000 2.8365
507 79 14.2913 12.2133 2.0290 3.2990 0.0000 2.6223
508 79 12.2480 14.2690 2.0136 2.4073 0.0000 2.8405
509 79 12.2093 12.2320 4.0749 3.3846 0.0000 2.2936
510 79 14.2991 14.2848 4.0722 2.8910 0.0000 2.5050
511 79 14.3188 12.2527 6.1475 2.3505 0.0000 2.1874
512 79 12.2355 14.2579 6.0461 2.9280 0.0000 2.3265
513 79 12.2488 12.2640 8.1523 2.4362 0.0000 2.3188
514 79 14.2282 14.2743 8.1567 2.3985 0.0000 2.6917
515 79 14.2460 12.2145 10.1753 3.2215 0.0000 2.5296
516 79 12.2475 14.2433 10.2106 3.1815 0.0000 2.5045
517 79 12.2120 12.2179 12.2464 3.2799 0.0000 2.7346
518 79 14.2718 14.2807 12.2221 2.5336 0.0000 2.3390
519 79 14.2512 12.2521 14.2694 3.4413 0.0000 2.2920
520 79 12.1982 14.2547 14.2794 3.0714 0.0000 2.3269
521 79 12.2172 12.2157 16.2807 2.7622 0.0000 2.2135
522 79 14.2529 14.2954 16.2986 2.3608 0.0000 2.5979
523 79 14.2305 12.2715 18.3577 2.4865 0.0000 2.6887
524 79 12.2449 14.2866 18.3541 2.9775 0.0000 2.2151
525 79 12.1827 12.2412 20.3738 3.2274 0.0000 2.2887
526 79 14.2623 14.2838 20.3863 2.3281 0.0000 2.3222
527 79 14.2691 12.2276 22.4456 3.3337 0.0000 2.2602
528 79 12.2179 14.2572 22.3737 2.3255 0.0000 2.3142
529 79 12.2160 16.3096 0.0059 3.3532 0.0000 2.2531
530 79 14.2956 18.3495 -0.0522 2.7069 0.0000 2.4825
531 79 14.2614 16.2939 2.0137 2.3710 0.0000 2.5050
532 79 12.2300 18.3559 2.0378 2.3357 0.0000 2.2957
533 79 12.2426 16.3450 4.1099 3.3298 0.0000 2.1901
534 79 14.2620 18.3641 4.1010 3.2515 0.0000 2.5571
535 79 14.2476 16.3114 6.0591 2.6691 0.0000 2.2204
536 79 12.2006 18.3379 6.0908 2.3770 0.0000 2.6944
537 79 12.2079 16.3315 8.1346 3.2237 0.0000 2.6989
538 79 14.2345 18.3866 8.1525 2.9796 0.0000 2.5903
539 79 14.2838 16.2860 10.1699 3.1977 0.0000 2.7977
540 79 12.1866 18.3377 10.1870 2.6693 0.0000 2.7882
541 79 12.2608 16.3175 12.2116 3.2802 0.0000 2.4856
542 79 14.2732 18.3770 12.2529 2.9793 0.0000 2.4883
543 79 14.2401 16.2516 14.2530 2.9507 0.0000 2.3913
544 79 12.2570 18.3461 14.2576 2.4841 0.0000 2.1962
545 79 12.2478 16.3356 16.3316 3.3902 0.0000 2.6676
546 79 14.3042 18.3261 16.3175 2.8354 0.0000 2.1510
547 79 14.2680 16.3309 18.3540 2.9549 0.0000 2.3204
548 79 12.2235 18.3403 18.3393 3.1231 0.0000 2.7666
549 79 12.2471 16.3132 20.3832 3.3369 0.0000 2.8440
550 79 14.2639 18.3516 20.3911 3.2034 0.0000 2.5608
551 79 14.3055 16.3344 22.3762 3.2876 0.0000 2.2203
552 79 12.2350 18.3517 22.4333 2.4762 0.0000 2.4390
553 79 12.2141 20.4131 -0.0096 2.9400 0.0000 2.5408
554 79 14.2616 22.4273 0.0181 2.8250 0.0000 2.5487
555 79 14.3026 20.3897 2.0295 3.3925 0.0000 2.2300
556 79 12.2267 22.4086 2.0405 3.4224 0.0000 2.5021
557 79 12.2221 20.3837 4.0788 2.6281 0.0000 2.4051
558 79 14.2434 22.4267 4.0569 3.3043 0.0000 2.3615
559 79 14.2743 20.4452 6.1652 2.9150 0.0000 2.6773
560 79 12.2622 22.4747 6.1159 2.6047 0.0000 2.8272
561 79 12.2223 20.3744 8.1587 3.4338 0.0000 2.4017
562 79 14.2696 22.4167 8.1561 3.2361 0.0000 2.3359
563 79 14.2926 20.3978 10.1928 2.9816 0.0000 2.7880
564 79 12.2427 22.3925 10.1691 3.3465 0.0000 2.6185
565 79 12.2476 20.3697 12.2235 2.6264 0.0000 2.7360
566 79 14.2510 22.4189 12.2441 3.3666 0.0000 2.8284
567 79 14.2826 20.4246 14.2634 2.9621 0.0000 2.4625
568 79 12.2413 22.4411 14.2440 2.4476 0.0000 2.3169
569 79 12.2214 20.4002 16.2909 3.2232 0.0000 2.4878
570 79 14.2733 22.4079 16.3336 3.1729 0.0000 2.5179
571 79 14.2512 20.3886 18.3399 3.1228 0.0000 2.4331
572 79 12.2304 22.5055 18.3490 3.3411 0.0000 2.8028
573 79 12.2304 20.3614 20.3920 3.1877 0.0000 2.8076
574 79 14.2800 22.4254 20.3613 2.9865 0.0000 2.1621
575 79 14.2693 20.3685 22.4389 3.4315 0.0000 2.4699
576 79 12.2625 22.4132 22.4379 3.1847 0.0000 2.8109
577 79 16.3248 0.0095 -0.0364 2.4823 0.0000 2.3452
578 79 18.3645 2.0129 0.0028 2.8848 0.0000 2.7669
579 79 18.3533 -0.0344 2.0538 3.3508 0.0000 2.6273
580 79 16.3174 2.0563 2.0361 2.7293 0.0000 2.4140
581 79 16.3146 -0.0186 4.0629 2.5888 0.0000 2.8220
582 79 18.4055 2.0143 4.0558 3.0973 0.0000 2.4584
583 79 18.3194 0.0032 6.1152 2.4863 0.0000 2.3766
584 79 16.3215 2.0231 6.1431 3.0647 0.0000 2.2927
585 79 16.2987 0.0023 8.1636 3.2449 0.0000 2.4718
586 79 18.3470 2.0629 8.1255 2.6242 0.0000 2.4374
587 79 18.3856 0.0033 10.1974 3.0102 0.0000 2.6910
588 79 16.3241 2.0289 10.1675 2.6099 0.0000 2.4778
589 79 16.2864 0.0113 12.2130 3.0436 0.0000 2.2293
590 79 18.3539 2.0508 12.2221 2.6987 0.0000 2.2579
591 79 18.3729 0.0063 14.2918 2.8301 0.0000 2.3827