ITEM: TIMESTEP
0
ITEM: NUMBER OF ATOMS
1024
ITEM: BOX BOUNDS pp pp pp
0.0 24.2400
0.0 24.2400
0.0 24.2400
ITEM: ATOMS id type x y z error strain stiffness
1 23 -0.0205 0.0084 0.0028 2.7750 0.0000 1.5094
2 23 1.5403 1.5113 1.5028 2.5093 0.0000 1.4889
3 23 0.0170 -0.0015 3.0287 3.0011 0.0000 1.5041
4 23 1.5293 1.5417 4.5545 2.1886 0.0000 1.8160
5 23 -0.0050 0.0199 6.0637 2.3135 0.0000 1.3843
6 23 1.4760 1.5433 7.5805 2.3835 0.0000 1.3925
7 23 0.0067 0.0018 9.0619 2.8035 0.0000 1.7706
8 23 1.5343 1.5267 10.6108 2.1965 0.0000 1.8150
9 23 0.0010 0.0026 12.1187 2.8858 0.0000 1.4421
10 23 1.5243 1.4715 13.6355 3.0235 0.0000 1.7536
11 23 -0.0013 -0.0066 15.1377 2.9815 0.0000 1.5529
12 23 1.5338 1.5125 16.6491 2.6033 0.0000 1.7877
13 23 0.0023 0.0204 18.1654 2.3427 0.0000 1.5565
14 23 1.5129 1.5291 19.6846 2.5399 0.0000 1.5045
15 23 -0.0039 -0.0168 21.2186 2.6328 0.0000 1.3943
16 23 1.5035 1.5192 22.7506 2.2701 0.0000 1.7817
17 23 0.0191 3.0496 -0.0207 2.3662 0.0000 1.6417
18 23 1.5256 4.5522 1.4970 2.1958 0.0000 1.6094
19 23 -0.0103 3.0318 3.0428 2.3285 0.0000 1.4954
20 23 1.5543 4.5507 4.5218 3.0153 0.0000 1.5826
21 23 0.0355 3.0096 6.0669 2.5025 0.0000 1.6545
22 23 1.4988 4.5428 7.5651 2.3622 0.0000 1.7630
23 23 -0.0132 3.0069 9.1049 2.7634 0.0000 1.4652
24 23 1.5564 4.5367 10.6156 2.2078 0.0000 1.5662
25 23 0.0096 3.0722 12.1057 2.3836 0.0000 1.3771
26 23 1.5366 4.5590 13.6295 2.7246 0.0000 1.4137
27 23 0.0008 3.0243 15.1623 2.3350 0.0000 1.5620
28 23 1.5032 4.5454 16.6571 2.1247 0.0000 1.6856
29 23 0.0058 3.0316 18.1909 2.4404 0.0000 1.7836
30 23 1.5073 4.5083 19.6814 2.5983 0.0000 1.7040
31 23 0.0124 3.0439 21.2056 2.2370 0.0000 1.4562
32 23 1.5628 4.5677 22.7029 2.6657 0.0000 1.6670
33 23 -0.0122 6.0386 0.0064 2.5894 0.0000 1.3936
34 23 1.5247 7.5928 1.5262 2.3307 0.0000 1.6930
35 23 0.0127 6.0528 3.0120 2.5981 0.0000 1.6217
36 23 1.5116 7.5666 4.5677 2.5016 0.0000 1.8349
37 23 0.0079 6.0904 6.0726 3.0174 0.0000 1.4281
38 23 1.5221 7.5682 7.5813 2.6586 0.0000 1.5383
39 23 -0.0092 6.0435 9.0841 2.7517 0.0000 1.7743
40 23 1.5371 7.5973 10.5921 2.7873 0.0000 1.7996
41 23 0.0241 6.0812 12.1267 3.0713 0.0000 1.8324
42 23 1.5135 7.6082 13.6021 2.3726 0.0000 1.7245
43 23 -0.0382 6.0779 15.1325 2.6100 0.0000 1.6898
44 23 1.5246 7.5721 16.6839 2.7018 0.0000 1.3922
45 23 -0.0097 6.0681 18.1892 2.5549 0.0000 1.8186
46 23 1.5125 7.5737 19.7148 2.8002 0.0000 1.7601
47 23 0.0136 6.0642 21.2213 2.3392 0.0000 1.8045
48 23 1.5123 7.5787 22.7340 3.0114 0.0000 1.4471
49 23 0.0097 9.0525 0.0012 2.4847 0.0000 1.6729
50 23 1.5154 10.5972 1.5021 2.5342 0.0000 1.4990
51 23 -0.0247 9.0958 3.0433 2.4112 0.0000 1.4204
52 23 1.5124 10.6086 4.5569 2.3691 0.0000 1.6707
53 23 0.0115 9.0975 6.0521 2.1070 0.0000 1.5410
54 23 1.5095 10.6057 7.6107 2.5472 0.0000 1.5461
55 23 0.0101 9.0949 9.1003 2.4372 0.0000 1.7102
56 23 1.5443 10.6190 10.6201 2.2411 0.0000 1.4892
57 23 0.0166 9.0948 12.1316 2.0825 0.0000 1.4160
58 23 1.5173 10.5738 13.6395 2.5181 0.0000 1.5600
59 23 -0.0028 9.0864 15.1435 2.6260 0.0000 1.6726
60 23 1.5033 10.5958 16.6847 2.5976 0.0000 1.4843
61 23 0.0133 9.1050 18.1694 2.4058 0.0000 1.6436
62 23 1.5213 10.6073 19.6735 2.2191 0.0000 1.5498
63 23 -0.0124 9.0890 21.1900 2.3676 0.0000 1.7275
64 23 1.5193 10.6000 22.7045 2.9477 0.0000 1.7185
65 23 0.0151 12.1386 -0.0144 2.7851 0.0000 1.7504
66 23 1.4968 13.6467 1.4967 2.1237 0.0000 1.8308
67 23 0.0155 12.1187 3.0275 2.1457 0.0000 1.4448
68 23 1.4914 13.6367 4.5543 2.2072 0.0000 1.6025
69 23 0.0352 12.0973 6.0640 2.1210 0.0000 1.6916
70 23 1.5304 13.6298 7.5745 2.8157 0.0000 1.4945
71 23 0.0166 12.1162 9.0966 2.5472 0.0000 1.6677
72 23 1.5101 13.6532 10.6172 2.7852 0.0000 1.7148
73 23 0.0009 12.1290 12.1329 2.8427 0.0000 1.8382
74 23 1.5220 13.6678 13.6494 2.9936 0.0000 1.4919
75 23 0.0001 12.1300 15.1698 2.8490 0.0000 1.3973
76 23 1.5310 13.6310 16.6690 2.4718 0.0000 1.5997
77 23 0.0170 12.1142 18.2036 2.8073 0.0000 1.4520
78 23 1.5275 13.6371 19.7050 2.5227 0.0000 1.7857
79 23 0.0083 12.1187 21.1633 2.5376 0.0000 1.4418
80 23 1.5350 13.6197 22.7404 2.5187 0.0000 1.6515
81 23 0.0145 15.1254 -0.0124 2.6642 0.0000 1.7021
82 23 1.4915 16.6585 1.5163 2.4108 0.0000 1.6091
83 23 -0.0137 15.1544 3.0220 2.5050 0.0000 1.7032
84 23 1.4996 16.6763 4.5001 2.1086 0.0000 1.4298
85 23 0.0225 15.1556 6.0674 2.8330 0.0000 1.6563
86 23 1.5050 16.6211 7.5781 2.9137 0.0000 1.5834
87 23 0.0268 15.1422 9.0927 2.9624 0.0000 1.6769
88 23 1.5082 16.6587 10.5884 3.0881 0.0000 1.4288
89 23 0.0011 15.1409 12.1134 2.5561 0.0000 1.6330
90 23 1.5237 16.6642 13.6332 2.9833 0.0000 1.6243
91 23 0.0146 15.1731 15.1538 3.0840 0.0000 1.4783
92 23 1.5161 16.6880 16.6556 2.8856 0.0000 1.3765
93 23 0.0071 15.1127 18.1878 2.5254 0.0000 1.7581
94 23 1.5070 16.6554 19.6901 2.0938 0.0000 1.5281
95 23 -0.0240 15.1529 21.2026 3.0298 0.0000 1.3922
96 23 1.5092 16.6562 22.7481 2.6795 0.0000 1.4830
97 23 0.0112 18.1743 -0.0018 2.3020 0.0000 1.4288
98 23 1.5134 19.6676 1.5109 2.3006 0.0000 1.5556
99 23 -0.0265 18.1871 3.0593 2.2065 0.0000 1.8173
100 23 1.5110 19.6880 4.5332 2.8401 0.0000 1.8130
101 23 -0.0004 18.1708 6.0655 2.4454 0.0000 1.7570
102 23 1.5099 19.7091 7.5578 2.2680 0.0000 1.6870
103 23 0.0153 18.1871 9.0711 2.7810 0.0000 1.7770
104 23 1.5336 19.7133 10.6386 3.0068 0.0000 1.4909
105 23 0.0027 18.1942 12.1099 2.4587 0.0000 1.5753
106 23 1.5385 19.6873 13.6501 2.1815 0.0000 1.8237
107 23 0.0028 18.1760 15.1520 2.7378 0.0000 1.4125
108 23 1.4946 19.6767 16.6865 2.6111 0.0000 1.7848
109 23 0.0060 18.1887 18.1833 3.0117 0.0000 1.8432
110 23 1.5137 19.6917 19.6684 2.3024 0.0000 1.6177
111 23 -0.0024 18.1952 21.1937 2.6822 0.0000 1.6697
112 23 1.4978 19.6866 22.7348 2.2354 0.0000 1.6293
113 23 -0.0048 21.1700 0.0085 2.1488 0.0000 1.7790
114 23 1.5182 22.7407 1.5061 2.4122 0.0000 1.5733
115 23 0.0084 21.2225 3.0279 2.3100 0.0000 1.4734
116 23 1.5133 22.7269 4.5794 2.5993 0.0000 1.7209
117 23 0.0063 21.2032 6.0336 2.9627 0.0000 1.3679
118 23 1.5216 22.7180 7.5607 2.5063 0.0000 1.7702
119 23 0.0014 21.2145 9.1039 2.2184 0.0000 1.3807
120 23 1.5094 22.7551 10.6233 2.9666 0.0000 1.8414
121 23 0.0029 21.2032 12.0918 2.1387 0.0000 1.6710
122 23 1.5356 22.7189 13.6420 2.8282 0.0000 1.4682
123 23 -0.0024 21.2023 15.1560 2.5039 0.0000 1.4239
124 23 1.5138 22.7065 16.6580 2.9282 0.0000 1.6010
125 23 -0.0237 21.1884 18.1648 2.3926 0.0000 1.8130
126 23 1.5181 22.7054 19.6996 2.6079 0.0000 1.7053
127 23 0.0223 21.1990 21.2206 3.0584 0.0000 1.7473
128 23 1.4931 22.7034 22.7216 2.4149 0.0000 1.7576
129 23 3.0384 -0.0043 -0.0064 2.4575 0.0000 1.5095
130 23 4.5408 1.5252 1.5011 2.3119 0.0000 1.5832
131 23 3.0214 -0.0107 3.0300 2.4925 0.0000 1.3748
132 23 4.5548 1.5193 4.5538 2.4385 0.0000 1.6218
133 23 3.0100 -0.0183 6.0464 2.5870 0.0000 1.7554
134 23 4.5266 1.4966 7.5480 2.1139 0.0000 1.5516
135 23 3.0337 -0.0096 9.0848 2.5481 0.0000 1.6217
136 23 4.5382 1.5078 10.5688 2.3663 0.0000 1.7181
137 23 3.0522 0.0242 12.1178 2.8591 0.0000 1.8114
138 23 4.5249 1.5132 13.6293 2.5116 0.0000 1.4415
139 23 3.0425 -0.0368 15.1315 2.5950 0.0000 1.7272
140 23 4.5325 1.5026 16.6829 2.3714 0.0000 1.6534
141 23 3.0290 -0.0083 18.1599 2.0738 0.0000 1.5927
142 23 4.5594 1.5300 19.7203 2.1473 0.0000 1.6140
143 23 3.0121 -0.0085 21.2036 2.1091 0.0000 1.3974
144 23 4.5495 1.5551 22.7040 2.6449 0.0000 1.5406
145 23 3.0442 3.0276 0.0080 2.3997 0.0000 1.5465
146 23 4.5464 4.5652 1.5221 2.2956 0.0000 1.3813
147 23 3.0407 3.0253 3.0242 3.0741 0.0000 1.8228
148 23 4.5219 4.5293 4.5514 2.5571 0.0000 1.4458
149 23 3.0426 3.0177 6.0681 2.5461 0.0000 1.7224
150 23 4.5719 4.5508 7.5583 2.4092 0.0000 1.7870
151 23 3.0748 3.0357 9.1107 2.2729 0.0000 1.6065
152 23 4.5387 4.5383 10.6081 2.2744 0.0000 1.5405
153 23 3.0270 3.0266 12.1273 2.1841 0.0000 1.5886
154 23 4.5403 4.5424 13.6146 2.7870 0.0000 1.7680
155 23 3.0405 3.0107 15.1414 2.3404 0.0000 1.6380
156 23 4.5616 4.5434 16.6584 2.4145 0.0000 1.6654
157 23 3.0469 3.0266 18.1946 2.4304 0.0000 1.4173
158 23 4.5402 4.5428 19.7302 2.9133 0.0000 1.6945
159 23 3.0432 3.0290 21.1803 2.1776 0.0000 1.7626
160 23 4.5183 4.5320 22.7113 2.2311 0.0000 1.6980
161 23 3.0374 6.0479 -0.0005 2.6273 0.0000 1.4805
162 23 4.5481 7.5841 1.5233 2.6331 0.0000 1.3711
163 23 3.0156 6.0700 3.0311 2.3510 0.0000 1.7975
164 23 4.5298 7.5870 4.5577 2.1810 0.0000 1.4617
165 23 3.0343 6.0418 6.0894 2.2146 0.0000 1.4379
166 23 4.5701 7.5669 7.5797 2.1471 0.0000 1.6022
167 23 3.0229 6.0319 9.0951 2.4671 0.0000 1.5852
168 23 4.5267 7.5843 10.6195 2.1453 0.0000 1.6404
169 23 3.0355 6.0474 12.1166 2.7161 0.0000 1.5236
170 23 4.5383 7.5846 13.6450 2.5342 0.0000 1.5044
171 23 3.0319 6.0716 15.1538 2.4422 0.0000 1.8328
172 23 4.5573 7.5752 16.6511 2.4047 0.0000 1.8210
173 23 3.0391 6.0581 18.2127 2.4164 0.0000 1.4550
174 23 4.5525 7.5854 19.6862 2.4954 0.0000 1.4296
175 23 3.0025 6.0476 21.2125 2.5390 0.0000 1.6355
176 23 4.5510 7.5527 22.7228 2.2636 0.0000 1.5321
177 23 3.0468 9.1168 0.0115 2.5383 0.0000 1.7594
178 23 4.5788 10.6005 1.5175 2.6553 0.0000 1.4148
179 23 3.0133 9.1029 3.0654 2.1947 0.0000 1.6028
180 23 4.5565 10.6198 4.5592 2.8310 0.0000 1.5740
181 23 3.0516 9.0417 6.0610 2.2251 0.0000 1.5149
182 23 4.5470 10.5898 7.5783 2.9192 0.0000 1.4906
183 23 3.0456 9.0742 9.0927 2.6206 0.0000 1.3730
184 23 4.5325 10.5976 10.6072 3.0693 0.0000 1.3639
185 23 3.0014 9.0937 12.1321 2.3491 0.0000 1.5858
186 23 4.5074 10.5979 13.6341 2.0873 0.0000 1.5596
187 23 3.0164 9.0590 15.1654 2.6599 0.0000 1.6891
188 23 4.5330 10.6285 16.6653 2.3719 0.0000 1.7587
189 23 3.0233 9.0778 18.1947 2.2571 0.0000 1.7441
190 23 4.5340 10.5960 19.6907 2.4810 0.0000 1.5289
191 23 3.0242 9.0920 21.2301 2.3756 0.0000 1.7754
192 23 4.5460 10.6116 22.7287 3.0640 0.0000 1.7382
193 23 3.0254 12.1103 -0.0185 2.6104 0.0000 1.6670
194 23 4.5536 13.6509 1.4912 2.3034 0.0000 1.5532
195 23 3.0241 12.1325 3.0204 2.5504 0.0000 1.4695
196 23 4.5365 13.6248 4.5454 2.6635 0.0000 1.4850
197 23 3.0370 12.1056 6.0663 2.9892 0.0000 1.4276
198 23 4.5329 13.6072 7.5769 2.7529 0.0000 1.7393
199 23 3.0342 12.0853 9.1009 2.7931 0.0000 1.6538
200 23 4.5566 13.6348 10.6036 2.1412 0.0000 1.8339
201 23 3.0431 12.1079 12.1323 2.2011 0.0000 1.7014
202 23 4.5349 13.6228 13.6553 2.7930 0.0000 1.7902
203 23 3.0406 12.1032 15.1624 2.6780 0.0000 1.4647
204 23 4.5146 13.6490 16.6727 2.1951 0.0000 1.8338
205 23 3.0247 12.1192 18.1964 2.9200 0.0000 1.6796
206 23 4.5260 13.6405 19.6727 3.0634 0.0000 1.5319
207 23 3.0084 12.0951 21.2282 2.8610 0.0000 1.6360
208 23 4.5285 13.6586 22.7102 2.3238 0.0000 1.3654
209 23 3.0363 15.1465 0.0204 2.7210 0.0000 1.6769
210 23 4.5811 16.6057 1.5329 2.0900 0.0000 1.5559
211 23 3.0434 15.1512 3.0129 2.4852 0.0000 1.5236
212 23 4.5509 16.6543 4.5404 2.0713 0.0000 1.6687
213 23 3.0315 15.1556 6.0523 2.1957 0.0000 1.6510
214 23 4.5348 16.6940 7.5902 2.1573 0.0000 1.7043
215 23 3.0417 15.1495 9.0690 2.8926 0.0000 1.6031
216 23 4.5505 16.6554 10.6021 2.3196 0.0000 1.6764
217 23 3.0417 15.1766 12.1052 2.4948 0.0000 1.6186
218 23 4.5303 16.6668 13.6503 2.2606 0.0000 1.7040
219 23 3.0153 15.1548 15.1618 2.7943 0.0000 1.6332
220 23 4.5513 16.6565 16.6711 2.6931 0.0000 1.4202
221 23 3.0232 15.1475 18.1786 2.5871 0.0000 1.8392
222 23 4.5216 16.6516 19.6952 2.8748 0.0000 1.4659
223 23 3.0164 15.1529 21.2286 2.0623 0.0000 1.8379
224 23 4.5400 16.6645 22.7202 2.0769 0.0000 1.7078
225 23 3.0023 18.1712 0.0065 2.4081 0.0000 1.5578
226 23 4.5449 19.6916 1.5218 2.1316 0.0000 1.4821
227 23 3.0294 18.1792 3.0314 2.0817 0.0000 1.4351
228 23 4.5589 19.6902 4.5523 2.0740 0.0000 1.3696
229 23 3.0610 18.1713 6.0569 2.2625 0.0000 1.3905
230 23 4.5725 19.6965 7.5983 2.0684 0.0000 1.5633
231 23 3.0115 18.1672 9.1159 2.4975 0.0000 1.4093
232 23 4.5345 19.7179 10.5944 2.4563 0.0000 1.4382
233 23 3.0159 18.1521 12.1341 2.6069 0.0000 1.7006
234 23 4.5378 19.6940 13.6507 2.3293 0.0000 1.5279
235 23 3.0563 18.1722 15.1303 2.4467 0.0000 1.6671
236 23 4.5179 19.6878 16.6686 2.4136 0.0000 1.5024
237 23 3.0255 18.1979 18.1673 3.0288 0.0000 1.5480
238 23 4.5608 19.6846 19.7223 2.5090 0.0000 1.4963
239 23 3.0324 18.1847 21.2138 3.0226 0.0000 1.5781
240 23 4.5524 19.6794 22.7426 2.7105 0.0000 1.5976
241 23 3.0355 21.1951 -0.0161 3.0163 0.0000 1.5435
242 23 4.5580 22.6959 1.5198 2.3798 0.0000 1.6113
243 23 3.0223 21.2161 3.0332 2.0940 0.0000 1.8148
244 23 4.5262 22.7260 4.5548 3.0583 0.0000 1.7892
245 23 3.0591 21.2556 6.0260 2.7023 0.0000 1.6528
246 23 4.5587 22.7409 7.5652 2.7025 0.0000 1.4359
247 23 3.0257 21.1860 9.1163 2.4908 0.0000 1.5920
248 23 4.5224 22.7363 10.6077 2.5922 0.0000 1.4206
249 23 3.0336 21.2120 12.1474 2.8801 0.0000 1.4493
250 23 4.5329 22.7335 13.6184 2.1244 0.0000 1.5741
251 23 3.0221 21.2168 15.1578 2.3255 0.0000 1.6522
252 23 4.5513 22.7044 16.6489 2.4795 0.0000 1.8205
253 23 3.0243 21.2159 18.1885 2.3023 0.0000 1.5339
254 23 4.5531 22.7227 19.7062 2.8579 0.0000 1.8177
255 23 3.0398 21.2241 21.1719 2.8006 0.0000 1.8255
256 23 4.5378 22.7399 22.7433 2.8651 0.0000 1.4592
257 23 6.0363 0.0241 -0.0228 2.9191 0.0000 1.6077
258 23 7.5602 1.5396 1.5240 2.9044 0.0000 1.6804
259 23 6.0629 0.0038 3.0180 2.5710 0.0000 1.4930
260 23 7.5548 1.4886 4.5374 3.0755 0.0000 1.3874
261 23 6.0646 -0.0080 6.0691 2.9775 0.0000 1.5861
262 23 7.5768 1.5397 7.5707 2.6190 0.0000 1.7967
263 23 6.0456 -0.0210 9.0404 2.8436 0.0000 1.7151
264 23 7.6031 1.5243 10.6007 2.6052 0.0000 1.5397
265 23 6.0634 0.0070 12.0796 2.2639 0.0000 1.4990
266 23 7.5766 1.5572 13.6345 2.6585 0.0000 1.7858
267 23 6.0205 0.0013 15.1411 2.3163 0.0000 1.4032
268 23 7.6052 1.4982 16.6348 2.5642 0.0000 1.7193
269 23 6.0624 -0.0031 18.1566 3.0152 0.0000 1.5632
270 23 7.5932 1.5283 19.7097 2.7780 0.0000 1.7715
271 23 6.0454 -0.0003 21.2020 2.9407 0.0000 1.6195
272 23 7.5764 1.4879 22.7059 2.8471 0.0000 1.6900
273 23 6.0476 3.0134 0.0080 2.9083 0.0000 1.7779
274 23 7.5559 4.5314 1.5497 2.5461 0.0000 1.5283
275 23 6.0352 3.0282 3.0399 2.2951 0.0000 1.7026
276 23 7.6011 4.5450 4.5467 2.8319 0.0000 1.3879
277 23 6.0229 3.0425 6.0974 3.0733 0.0000 1.7545
278 23 7.5716 4.5394 7.5913 2.4437 0.0000 1.6546
279 23 6.0335 3.0115 9.1112 2.2668 0.0000 1.6759
280 23 7.5519 4.5497 10.6021 2.9599 0.0000 1.7997
281 23 6.0359 3.0436 12.1134 2.8783 0.0000 1.5563
282 23 7.5667 4.5458 13.6424 2.9181 0.0000 1.6008
283 23 6.0707 3.0441 15.1395 2.0970 0.0000 1.3866
284 23 7.5593 4.5464 16.6393 2.2762 0.0000 1.7643
285 23 6.0659 3.0496 18.2444 2.0880 0.0000 1.7380
286 23 7.5658 4.5543 19.6981 2.6429 0.0000 1.7978
287 23 6.0792 3.0632 21.2178 2.6784 0.0000 1.3895
288 23 7.5771 4.5344 22.7424 2.9277 0.0000 1.4154
289 23 6.0649 6.0632 0.0155 2.7102 0.0000 1.7654
290 23 7.5839 7.5815 1.5157 3.0032 0.0000 1.4248
291 23 6.0618 6.0653 3.0447 2.6979 0.0000 1.6007
292 23 7.5704 7.5529 4.5534 2.2889 0.0000 1.6988
293 23 6.0657 6.0554 6.0600 2.3757 0.0000 1.7838
294 23 7.5914 7.5766 7.5825 2.5209 0.0000 1.8190
295 23 6.0527 6.0494 9.0618 2.3442 0.0000 1.5802
296 23 7.5742 7.5603 10.6168 3.0788 0.0000 1.8002
297 23 6.0583 6.0749 12.1312 3.0036 0.0000 1.5209
298 23 7.5623 7.5556 13.6447 2.9215 0.0000 1.7764
299 23 6.0604 6.0532 15.1506 2.6782 0.0000 1.4627
300 23 7.5725 7.5824 16.6754 2.3257 0.0000 1.5803
301 23 6.0629 6.0605 18.1790 2.1340 0.0000 1.5233
302 23 7.5879 7.6090 19.6916 2.8522 0.0000 1.5200
303 23 6.0451 6.0642 21.2383 2.4530 0.0000 1.7606
304 23 7.5527 7.5431 22.7310 2.5538 0.0000 1.8202
305 23 6.0419 9.1121 0.0010 2.7692 0.0000 1.7108
306 23 7.5731 10.5893 1.5050 2.0659 0.0000 1.7133
307 23 6.0735 9.0986 3.0179 2.2836 0.0000 1.8232
308 23 7.5965 10.6054 4.5569 2.9207 0.0000 1.4275
309 23 6.0337 9.1054 6.0620 3.0271 0.0000 1.7484
310 23 7.5683 10.6354 7.5802 2.3695 0.0000 1.7159
311 23 6.0564 9.0824 9.1073 2.6563 0.0000 1.7890
312 23 7.5783 10.6202 10.5972 2.5989 0.0000 1.7135
313 23 6.0366 9.0995 12.0927 2.7616 0.0000 1.7490
314 23 7.5775 10.6064 13.6423 2.8544 0.0000 1.3659
315 23 6.0520 9.0653 15.1623 2.5162 0.0000 1.4210
316 23 7.5695 10.5888 16.6713 2.0766 0.0000 1.5365
317 23 6.0478 9.0818 18.1841 2.5522 0.0000 1.7756
318 23 7.5797 10.6175 19.7065 2.6985 0.0000 1.5939
319 23 6.0570 9.0840 21.1961 2.2905 0.0000 1.7454
320 23 7.5820 10.6030 22.7264 2.5648 0.0000 1.7559
321 23 6.0512 12.1243 0.0035 2.7637 0.0000 1.6925
322 23 7.5576 13.6362 1.5219 2.5605 0.0000 1.6037
323 23 6.0600 12.1139 3.0555 2.8048 0.0000 1.5624
324 23 7.6092 13.6468 4.5353 2.7682 0.0000 1.6655
325 23 6.0663 12.1097 6.0698 2.0801 0.0000 1.7589
326 23 7.5989 13.6202 7.5845 2.1497 0.0000 1.3725
327 23 6.0556 12.0985 9.0904 2.7409 0.0000 1.6686
328 23 7.5936 13.6212 10.6062 2.6330 0.0000 1.6299
329 23 6.0327 12.1360 12.0997 2.3800 0.0000 1.7611
330 23 7.5998 13.6546 13.6224 2.6906 0.0000 1.3920
331 23 6.0551 12.1321 15.1315 2.3940 0.0000 1.5885
332 23 7.5389 13.6427 16.6552 2.4425 0.0000 1.5530
333 23 6.0935 12.1484 18.1351 2.6115 0.0000 1.8069
334 23 7.5663 13.6628 19.7050 2.2766 0.0000 1.4170
335 23 6.0423 12.1086 21.1937 2.1654 0.0000 1.5753
336 23 7.5877 13.6512 22.7429 2.7682 0.0000 1.3695
337 23 6.0374 15.1504 -0.0308 3.0268 0.0000 1.4933
338 23 7.5851 16.6499 1.4890 2.6032 0.0000 1.5390
339 23 6.0384 15.1246 3.0499 2.0826 0.0000 1.8049
340 23 7.5941 16.6669 4.5560 2.5010 0.0000 1.7524
341 23 6.0412 15.1746 6.0374 2.9078 0.0000 1.7805
342 23 7.5593 16.6598 7.5691 2.2906 0.0000 1.7842
343 23 6.0544 15.1301 9.0584 2.8082 0.0000 1.4100
344 23 7.5942 16.6597 10.6161 2.3648 0.0000 1.5179
345 23 6.0592 15.1417 12.1212 2.5886 0.0000 1.4411
346 23 7.5461 16.6676 13.6659 2.7625 0.0000 1.8352
347 23 6.0391 15.1523 15.1400 2.9045 0.0000 1.3750
348 23 7.6056 16.6788 16.6637 2.0977 0.0000 1.8334
349 23 6.0403 15.1435 18.1864 3.0805 0.0000 1.8190
350 23 7.5740 16.6709 19.6935 3.0023 0.0000 1.7017
351 23 6.0706 15.1692 21.2167 2.4175 0.0000 1.6951
352 23 7.5830 16.6630 22.7207 2.7682 0.0000 1.8121
353 23 6.0663 18.1598 -0.0350 2.4994 0.0000 1.7618
354 23 7.5595 19.6844 1.5150 2.7632 0.0000 1.6215
355 23 6.0530 18.1566 3.0242 2.2464 0.0000 1.6228
356 23 7.5605 19.7058 4.5218 2.3803 0.0000 1.6644
357 23 6.0340 18.1500 6.0495 2.3426 0.0000 1.6258
358 23 7.5700 19.6938 7.5906 2.5974 0.0000 1.7031
359 23 6.0406 18.2151 9.1069 2.5830 0.0000 1.6754
360 23 7.5537 19.6990 10.6133 2.6690 0.0000 1.7300
361 23 6.0825 18.1882 12.1291 2.2501 0.0000 1.5298
362 23 7.5820 19.6949 13.6266 2.6824 0.0000 1.5847
363 23 6.0691 18.1681 15.1317 2.6008 0.0000 1.7847
364 23 7.5809 19.7125 16.6414 2.1161 0.0000 1.3741
365 23 6.0560 18.1663 18.1610 2.1698 0.0000 1.6502
366 23 7.5763 19.6967 19.7176 2.9502 0.0000 1.6419
367 23 6.0675 18.2073 21.1957 2.6080 0.0000 1.6078
368 23 7.5686 19.6871 22.7251 2.5799 0.0000 1.4034
369 23 6.0665 21.1875 -0.0336 2.9858 0.0000 1.7538
370 23 7.5686 22.7018 1.5114 2.3934 0.0000 1.7390
371 23 6.0827 21.2466 3.0299 2.3775 0.0000 1.7860
372 23 7.5470 22.7134 4.5080 2.3640 0.0000 1.6663
373 23 6.0750 21.2119 6.0761 2.9538 0.0000 1.3864
374 23 7.5579 22.7254 7.5705 2.1106 0.0000 1.6148
375 23 6.0837 21.2232 9.0896 2.9396 0.0000 1.6700
376 23 7.5728 22.7004 10.6091 2.7313 0.0000 1.5422
377 23 6.0914 21.2164 12.1275 2.1164 0.0000 1.5513
378 23 7.5634 22.7183 13.6413 2.8579 0.0000 1.5565
379 23 6.0721 21.2167 15.1423 2.5362 0.0000 1.6712
380 23 7.5677 22.7375 16.6558 2.1867 0.0000 1.8120
381 23 6.0618 21.2079 18.1825 2.3025 0.0000 1.8236
382 23 7.5613 22.6988 19.6852 2.8648 0.0000 1.5494
383 23 6.0571 21.2440 21.2038 2.4697 0.0000 1.4987
384 23 7.5588 22.7209 22.7267 2.8633 0.0000 1.3800
385 23 9.1000 0.0094 0.0096 2.2635 0.0000 1.5228
386 23 10.6011 1.5350 1.5227 2.2201 0.0000 1.6372
387 23 9.0819 0.0162 3.0230 2.5748 0.0000 1.7260
388 23 10.6099 1.5046 4.5434 2.5189 0.0000 1.5199
389 23 9.0776 0.0066 6.0534 3.0595 0.0000 1.6126
390 23 10.6005 1.5304 7.5895 2.7920 0.0000 1.5690
391 23 9.1046 -0.0308 9.1129 2.4183 0.0000 1.7574
392 23 10.6123 1.5034 10.5814 2.7513 0.0000 1.6290
393 23 9.0831 -0.0145 12.1167 2.3654 0.0000 1.8027
394 23 10.6272 1.4955 13.6405 2.6636 0.0000 1.3737
395 23 9.1091 -0.0216 15.1572 2.9309 0.0000 1.5464
396 23 10.6108 1.5262 16.6652 2.5237 0.0000 1.4127
397 23 9.1073 0.0292 18.1818 2.8777 0.0000 1.6276
398 23 10.6040 1.5403 19.7190 2.9082 0.0000 1.4363
399 23 9.0867 -0.0040 21.2067 2.7012 0.0000 1.5119
400 23 10.5882 1.5104 22.7497 2.7765 0.0000 1.3783
401 23 9.0700 3.0492 0.0259 2.6082 0.0000 1.5489
402 23 10.5921 4.5281 1.5303 2.0890 0.0000 1.4109
403 23 9.0865 3.0306 3.0418 2.4286 0.0000 1.6622
404 23 10.6002 4.5534 4.5697 2.4422 0.0000 1.8227
405 23 9.0847 3.0202 6.0571 2.7813 0.0000 1.6248
406 23 10.6355 4.5422 7.5759 2.3635 0.0000 1.6153
407 23 9.1035 3.0011 9.1161 2.8180 0.0000 1.3812
408 23 10.6134 4.5536 10.5976 2.3318 0.0000 1.5727
409 23 9.1067 3.0494 12.0940 2.7262 0.0000 1.4103
410 23 10.6067 4.5302 13.6213 2.3823 0.0000 1.6730
411 23 9.0962 3.0125 15.1625 2.6082 0.0000 1.6123
412 23 10.5910 4.5829 16.6578 2.5187 0.0000 1.4714
413 23 9.0775 3.0355 18.1746 2.1947 0.0000 1.4391
414 23 10.6018 4.5580 19.7032 2.3815 0.0000 1.8208
415 23 9.1098 3.0001 21.1987 2.8539 0.0000 1.5026
416 23 10.6170 4.5566 22.6968 2.9636 0.0000 1.7645
417 23 9.1074 6.0629 -0.0202 2.2052 0.0000 1.6420
418 23 10.5966 7.5416 1.5489 2.6677 0.0000 1.5382
419 23 9.0822 6.0744 3.0221 2.6359 0.0000 1.6434
420 23 10.5978 7.5719 4.5488 2.8721 0.0000 1.4298
421 23 9.1081 6.0630 6.0707 2.4815 0.0000 1.4765
422 23 10.5845 7.5729 7.5964 2.2963 0.0000 1.6274
423 23 9.0673 6.0611 9.1247 3.0517 0.0000 1.8390
424 23 10.5768 7.5763 10.6071 3.0821 0.0000 1.4222
425 23 9.0624 6.0487 12.1144 3.0358 0.0000 1.7796
426 23 10.5610 7.5682 13.6049 2.0737 0.0000 1.4555
427 23 9.0794 6.0440 15.1754 2.4573 0.0000 1.6474
428 23 10.5888 7.5716 16.6403 2.9415 0.0000 1.3930
429 23 9.1143 6.0518 18.1770 2.1002 0.0000 1.7212
430 23 10.6225 7.5759 19.7186 2.3700 0.0000 1.6898
431 23 9.0716 6.0575 21.1984 2.9248 0.0000 1.4441
432 23 10.6245 7.5804 22.6953 2.1233 0.0000 1.4877
433 23 9.1073 9.0910 0.0022 2.6345 0.0000 1.5440
434 23 10.5832 10.6215 1.5162 2.1120 0.0000 1.7400
435 23 9.0962 9.0945 3.0592 2.9546 0.0000 1.3933
436 23 10.6236 10.6186 4.5369 2.3236 0.0000 1.4263
437 23 9.1172 9.0761 6.0509 2.0822 0.0000 1.4675
438 23 10.6072 10.5935 7.5798 2.1152 0.0000 1.8154
439 23 9.0822 9.0952 9.0852 2.1987 0.0000 1.6218
440 23 10.6241 10.6185 10.6258 2.2287 0.0000 1.8366
441 23 9.1014 9.0996 12.1420 2.1211 0.0000 1.4902
442 23 10.5977 10.5963 13.6467 2.2358 0.0000 1.7418
443 23 9.1016 9.0761 15.1695 2.2986 0.0000 1.7553
444 23 10.5708 10.6201 16.6755 2.2921 0.0000 1.5131
445 23 9.1245 9.0941 18.1682 2.4871 0.0000 1.6850
446 23 10.6310 10.6078 19.6929 2.1244 0.0000 1.5542
447 23 9.0951 9.0978 21.2174 2.0869 0.0000 1.6796
448 23 10.5992 10.6164 22.7320 2.8761 0.0000 1.6808
449 23 9.0630 12.1150 0.0127 2.3178 0.0000 1.5252
450 23 10.5966 13.6259 1.5099 2.2679 0.0000 1.3776
451 23 9.0917 12.1361 3.0337 2.4381 0.0000 1.6947
452 23 10.6302 13.6227 4.5491 2.8026 0.0000 1.6605
453 23 9.0673 12.1145 6.0602 2.3916 0.0000 1.7653
454 23 10.6185 13.6276 7.5588 2.2712 0.0000 1.4567
455 23 9.0942 12.1064 9.0880 2.0891 0.0000 1.4248
456 23 10.5924 13.6486 10.5962 2.7719 0.0000 1.4354
457 23 9.0975 12.0944 12.1127 2.1559 0.0000 1.7885
458 23 10.6079 13.6400 13.6284 2.8358 0.0000 1.7460
459 23 9.0770 12.1051 15.1746 2.1128 0.0000 1.4460
460 23 10.5846 13.6186 16.6730 3.0312 0.0000 1.4481
461 23 9.0757 12.0933 18.1655 2.5675 0.0000 1.6657
462 23 10.5818 13.6770 19.7000 2.1538 0.0000 1.5549
463 23 9.0836 12.1059 21.2211 2.7186 0.0000 1.4703
464 23 10.5859 13.6497 22.7056 2.1192 0.0000 1.7957
465 23 9.0793 15.1449 0.0254 2.5980 0.0000 1.7829
466 23 10.6199 16.6718 1.5174 2.9319 0.0000 1.4108
467 23 9.1196 15.1460 3.0500 2.2471 0.0000 1.4437
468 23 10.5989 16.6806 4.5488 2.8891 0.0000 1.5446
469 23 9.1084 15.1818 6.0469 2.1240 0.0000 1.6585
470 23 10.5957 16.6443 7.5611 2.0624 0.0000 1.5312
471 23 9.1145 15.1381 9.1100 2.6664 0.0000 1.5204
472 23 10.6005 16.6849 10.6156 2.9271 0.0000 1.7209
473 23 9.1135 15.1580 12.0987 2.8281 0.0000 1.6688
474 23 10.6060 16.6763 13.6161 2.9526 0.0000 1.7765
475 23 9.1139 15.1498 15.1623 2.4893 0.0000 1.6404
476 23 10.6162 16.6828 16.6723 2.1846 0.0000 1.8033
477 23 9.0953 15.1533 18.2118 3.0489 0.0000 1.4812
478 23 10.6075 16.6292 19.6789 2.3848 0.0000 1.4022
479 23 9.1062 15.1637 21.2128 3.0430 0.0000 1.5806
480 23 10.6187 16.6437 22.7299 2.1138 0.0000 1.7419
481 23 9.0923 18.1807 -0.0075 2.0737 0.0000 1.5982
482 23 10.6151 19.6654 1.5097 2.9541 0.0000 1.4206
483 23 9.0640 18.1676 3.0070 2.8126 0.0000 1.4171
484 23 10.5786 19.6989 4.5144 2.9295 0.0000 1.5534
485 23 9.1020 18.1626 6.0574 2.7305 0.0000 1.4280
486 23 10.6238 19.6975 7.5739 2.6254 0.0000 1.4702
487 23 9.0759 18.1659 9.0882 2.6461 0.0000 1.7205
488 23 10.5921 19.6890 10.6105 2.3907 0.0000 1.6024
489 23 9.1151 18.1686 12.0995 2.6810 0.0000 1.4889
490 23 10.5781 19.6990 13.6470 2.6435 0.0000 1.6782
491 23 9.0940 18.1778 15.1469 2.5401 0.0000 1.5544
492 23 10.6085 19.6776 16.6732 2.1341 0.0000 1.4054
493 23 9.0646 18.1804 18.1783 2.3878 0.0000 1.6762
494 23 10.5724 19.7066 19.7124 2.8672 0.0000 1.7065
495 23 9.1040 18.1833 21.2321 2.1798 0.0000 1.7571
496 23 10.6121 19.7041 22.7283 2.3248 0.0000 1.6145
497 23 9.0555 21.2347 -0.0194 2.1702 0.0000 1.8080
498 23 10.5982 22.7240 1.5261 2.3705 0.0000 1.4991
499 23 9.1147 21.2135 3.0152 3.0173 0.0000 1.6377
500 23 10.6128 22.7332 4.5149 2.0931 0.0000 1.6441
501 23 9.0996 21.2054 6.0745 2.1910 0.0000 1.6525
502 23 10.6164 22.7273 7.5852 2.9664 0.0000 1.3730
503 23 9.1155 21.2047 9.0901 2.4642 0.0000 1.8199
504 23 10.6037 22.7208 10.6218 3.0641 0.0000 1.7382
505 23 9.0828 21.2105 12.1069 2.5266 0.0000 1.7295
506 23 10.6024 22.7506 13.6409 2.5663 0.0000 1.4868
507 23 9.1021 21.2207 15.1309 2.3205 0.0000 1.5876
508 23 10.5939 22.7673 16.6756 2.1105 0.0000 1.7554
509 23 9.1071 21.2120 18.1739 3.0249 0.0000 1.3871
510 23 10.5668 22.7267 19.7002 2.6613 0.0000 1.6763
511 23 9.1116 21.2128 21.2151 2.5299 0.0000 1.4691
512 23 10.6004 22.7262 22.7149 2.9483 0.0000 1.4731
513 23 12.1301 0.0148 -0.0013 2.7735 0.0000 1.8006
514 23 13.6358 1.5368 1.5316 2.3415 0.0000 1.8280
515 23 12.1177 0.0002 3.0073 2.7193 0.0000 1.5933
516 23 13.6226 1.5001 4.5345 2.5932 0.0000 1.5907
517 23 12.1354 -0.0074 6.0783 2.6596 0.0000 1.3807
518 23 13.6053 1.5070 7.5667 2.3533 0.0000 1.4597
519 23 12.1192 0.0245 9.0607 2.7916 0.0000 1.5535
520 23 13.6315 1.5212 10.5756 2.6864 0.0000 1.6865
521 23 12.1104 0.0089 12.1273 2.0873 0.0000 1.6350
522 23 13.6584 1.5162 13.6352 2.6209 0.0000 1.8011
523 23 12.1029 0.0289 15.1638 2.8315 0.0000 1.4195
524 23 13.6116 1.5247 16.6475 2.0594 0.0000 1.6787
525 23 12.1236 -0.0039 18.1992 2.2585 0.0000 1.6856
526 23 13.6341 1.5165 19.6842 2.4121 0.0000 1.7075
527 23 12.1328 -0.0296 21.1895 2.8058 0.0000 1.6161
528 23 13.6424 1.5397 22.7274 2.8543 0.0000 1.4658
529 23 12.0949 3.0452 -0.0015 3.0429 0.0000 1.5124
530 23 13.6355 4.5348 1.5060 2.9230 0.0000 1.7069
531 23 12.1005 3.0419 3.0493 2.9457 0.0000 1.5854
532 23 13.6484 4.5784 4.5401 2.7650 0.0000 1.6197
533 23 12.1329 3.0348 6.0593 2.3178 0.0000 1.5266
534 23 13.6356 4.5622 7.5621 2.9856 0.0000 1.7749
535 23 12.1139 3.0431 9.0991 2.3362 0.0000 1.4050
536 23 13.6252 4.5618 10.6061 2.1550 0.0000 1.7564
537 23 12.1201 3.0411 12.1102 2.4625 0.0000 1.7036
538 23 13.6528 4.5350 13.6411 2.3088 0.0000 1.4028
539 23 12.1646 3.0343 15.1378 2.5129 0.0000 1.8194
540 23 13.6448 4.5569 16.6701 2.3813 0.0000 1.6321
541 23 12.1359 3.0419 18.1920 2.5777 0.0000 1.6302
542 23 13.6297 4.5543 19.6904 2.7350 0.0000 1.3906
543 23 12.1237 3.0026 21.2519 2.3984 0.0000 1.6814
544 23 13.6166 4.5355 22.7245 2.2602 0.0000 1.6935
545 23 12.1131 6.0725 0.0215 2.0841 0.0000 1.8221
546 23 13.6277 7.5884 1.5210 2.9153 0.0000 1.4791
547 23 12.1383 6.0507 3.0345 2.7264 0.0000 1.5120
548 23 13.6390 7.5987 4.5427 2.3883 0.0000 1.8354
549 23 12.1131 6.0591 6.0778 2.3908 0.0000 1.6489
550 23 13.6529 7.5855 7.5672 2.6609 0.0000 1.3763
551 23 12.1034 6.0844 9.0872 2.9672 0.0000 1.7556
552 23 13.6545 7.5742 10.5874 2.9859 0.0000 1.4585
553 23 12.1032 6.0574 12.0992 2.4672 0.0000 1.7913
554 23 13.6162 7.5874 13.6260 2.7291 0.0000 1.6743
555 23 12.1071 6.0634 15.1504 2.6409 0.0000 1.6809
556 23 13.6397 7.5846 16.6936 2.5356 0.0000 1.6996
557 23 12.1230 6.0856 18.1843 2.7815 0.0000 1.6789
558 23 13.6576 7.5664 19.6847 2.9471 0.0000 1.4693
559 23 12.1208 6.0538 21.2280 2.9157 0.0000 1.6930
560 23 13.6304 7.5811 22.7240 2.5943 0.0000 1.4693
561 23 12.1237 9.0777 -0.0045 2.2726 0.0000 1.4736
562 23 13.6392 10.6287 1.4984 2.8403 0.0000 1.4131
563 23 12.1189 9.0997 3.0342 2.6542 0.0000 1.4233
564 23 13.6270 10.5795 4.5348 2.6289 0.0000 1.7397
565 23 12.1267 9.0880 6.0544 2.8619 0.0000 1.3764
566 23 13.6590 10.6244 7.5818 2.5313 0.0000 1.7587
567 23 12.1294 9.1016 9.0931 2.1897 0.0000 1.7976
568 23 13.6647 10.6391 10.6150 3.0020 0.0000 1.5910
569 23 12.1131 9.1203 12.1179 2.5908 0.0000 1.8386
570 23 13.6252 10.5910 13.6408 2.7310 0.0000 1.4013
571 23 12.1034 9.0611 15.1371 2.4322 0.0000 1.6541
572 23 13.6189 10.5838 16.6776 2.3440 0.0000 1.4427
573 23 12.1352 9.0927 18.1948 2.9175 0.0000 1.7753
574 23 13.6498 10.6362 19.6805 2.8440 0.0000 1.8386
575 23 12.1036 9.1050 21.2094 2.2559 0.0000 1.4882
576 23 13.6318 10.6005 22.7431 2.2592 0.0000 1.6119
577 23 12.1546 12.1179 0.0041 2.6793 0.0000 1.7789
578 23 13.6876 13.6415 1.5239 2.1617 0.0000 1.5246
579 23 12.1221 12.1139 3.0158 2.2490 0.0000 1.4204
580 23 13.6378 13.6377 4.5629 2.0941 0.0000 1.4302
581 23 12.1502 12.1394 6.0676 2.8639 0.0000 1.4330
582 23 13.6402 13.6325 7.5937 2.8677 0.0000 1.5409
583 23 12.1397 12.1404 9.0825 2.5613 0.0000 1.7884
584 23 13.6283 13.6032 10.6072 2.7726 0.0000 1.4215
585 23 12.1256 12.1408 12.1071 2.9745 0.0000 1.4750
586 23 13.6427 13.6417 13.6308 2.5465 0.0000 1.6882
587 23 12.1273 12.1114 15.1365 2.9610 0.0000 1.6287
588 23 13.6475 13.6411 16.6843 2.4677 0.0000 1.7836
589 23 12.1098 12.1249 18.1711 2.8207 0.0000 1.7247
590 23 13.6447 13.6546 19.7160 3.0064 0.0000 1.6818
591 23 12.1048 12.1320 21.1969 2.6369 0.0000 1.5199
592 23 13.6289 13.6671 22.7338 2.1619 0.0000 1.8283
593 23 12.1001 15.1747 0.0231 2.8717 0.0000 1.6350