ITEM: TIMESTEP
0
ITEM: NUMBER OF ATOMS
1024
ITEM: BOX BOUNDS pp pp pp
0.0 23.2800
0.0 23.2800
0.0 23.2800
ITEM: ATOMS id type x y z error strain stiffness
1 24 0.2488 0.0145 0.0856 32.9227 0.0000 20.6297
2 24 1.6119 1.5627 1.5755 27.3091 0.0000 20.7944
3 24 0.0278 -0.0477 2.9511 33.1615 0.0000 18.0528
4 24 1.5850 1.4556 4.3777 31.4116 0.0000 16.3852
5 24 -0.2174 -0.2186 6.0959 26.9736 0.0000 19.5682
6 24 1.4098 1.0703 7.0811 32.3675 0.0000 20.2852
7 24 -0.2720 0.0669 8.9290 29.3610 0.0000 19.2626
8 24 1.2726 1.5639 10.4999 23.8225 0.0000 18.2400
9 24 0.0169 0.1232 11.8098 31.0020 0.0000 19.7713
10 24 1.6358 1.4130 13.2383 31.3340 0.0000 17.6949
11 24 -0.2404 -0.0400 14.3637 33.6498 0.0000 16.9864
12 24 1.6709 1.3352 16.1585 23.8644 0.0000 16.2852
13 24 0.0766 0.2102 17.3088 29.8787 0.0000 18.8266
14 24 1.5050 1.4660 19.0758 23.3014 0.0000 17.1635
15 24 0.1288 -0.0766 20.6427 33.7399 0.0000 16.0867
16 24 1.7318 1.6283 21.9895 31.5724 0.0000 20.1393
17 24 -0.1797 2.8544 -0.0051 31.2808 0.0000 16.6285
18 24 1.6133 4.2669 1.4447 32.6201 0.0000 20.1025
19 24 0.1327 3.0491 2.6722 31.4222 0.0000 16.2909
20 24 1.2515 4.3744 4.1685 26.2247 0.0000 20.1070
21 24 -0.0459 2.9710 5.7462 29.5659 0.0000 16.8294
22 24 1.1810 4.4908 7.0460 24.9412 0.0000 20.0592
23 24 0.0415 2.8376 8.4131 30.4383 0.0000 17.9027
24 24 1.5063 4.5974 10.1948 29.2644 0.0000 19.8457
25 24 -0.2099 3.1630 11.5840 28.6102 0.0000 18.6613
26 24 1.7266 4.5464 13.2047 29.7446 0.0000 17.4128
27 24 0.0988 2.9188 14.6511 30.8529 0.0000 18.1067
28 24 1.3873 4.2396 15.9299 33.7349 0.0000 18.7554
29 24 -0.2054 2.7877 17.6046 33.2213 0.0000 17.6036
30 24 1.7358 4.0801 18.7403 33.3534 0.0000 19.6267
31 24 0.1404 3.0288 20.4988 25.9465 0.0000 18.0169
32 24 1.3713 4.3728 21.8387 27.8826 0.0000 16.1809
33 24 0.2451 5.8035 -0.1396 23.8788 0.0000 19.2327
34 24 1.3086 7.1730 1.4184 33.0503 0.0000 18.5227
35 24 0.0397 5.6946 3.1069 33.8525 0.0000 16.2836
36 24 1.4544 7.1633 4.2748 25.5796 0.0000 20.3841
37 24 0.1101 6.0973 5.9378 24.5804 0.0000 17.8661
38 24 1.3226 7.0963 7.0385 28.1332 0.0000 17.3945
39 24 0.0839 5.7760 8.7697 30.2370 0.0000 20.9848
40 24 1.3316 7.4670 10.0855 26.4383 0.0000 20.5162
41 24 0.2279 5.6565 11.7286 23.4098 0.0000 16.4459
42 24 1.3505 7.5217 13.0075 29.6012 0.0000 16.7423
43 24 -0.1673 6.0323 14.6711 32.8339 0.0000 16.0336
44 24 1.5187 7.2226 16.0015 24.7514 0.0000 19.0771
45 24 0.2240 5.8001 17.3086 30.4718 0.0000 20.0065
46 24 1.3067 7.4777 18.9473 30.2025 0.0000 19.4649
47 24 0.1601 5.7668 20.2428 25.3667 0.0000 17.0280
48 24 1.4604 7.3169 21.7600 27.6503 0.0000 20.8204
49 24 -0.1737 8.6371 -0.2209 34.0979 0.0000 17.3826
50 24 1.4350 10.3444 1.4727 31.2299 0.0000 18.5973
51 24 0.1027 8.6185 2.6372 29.3614 0.0000 17.6927
52 24 1.3843 10.0888 4.4443 33.9109 0.0000 19.1758
53 24 -0.2094 8.8862 5.6767 30.0328 0.0000 18.4727
54 24 1.4674 10.3040 7.3233 29.6479 0.0000 17.5576
55 24 -0.0303 8.5621 8.3078 24.5853 0.0000 19.6638
56 24 1.6515 10.0705 10.4197 30.6306 0.0000 17.4050
57 24 0.0165 8.5202 11.5745 26.4933 0.0000 16.2473
58 24 1.5268 10.1135 13.0108 27.1435 0.0000 17.9956
59 24 0.2907 8.5962 14.4992 24.8528 0.0000 16.4143
60 24 1.2775 10.0605 16.1498 30.3117 0.0000 18.8316
61 24 0.0019 8.6682 17.5847 26.5516 0.0000 18.1343
62 24 1.6309 9.8878 18.7893 31.9574 0.0000 19.7991
63 24 0.0055 8.5214 20.7667 25.8689 0.0000 19.9997
64 24 1.3816 10.2715 21.5013 25.4599 0.0000 21.0614
65 24 -0.2627 11.4946 0.2865 32.1480 0.0000 17.2430
66 24 1.5080 13.4302 1.5748 24.2655 0.0000 19.9338
67 24 -0.0078 11.7715 2.9021 30.8889 0.0000 19.1896
68 24 1.1307 13.0792 4.3976 23.3892 0.0000 19.5296
69 24 0.1660 11.6644 5.9548 34.2994 0.0000 16.9541
70 24 1.5459 13.6326 7.3893 30.3687 0.0000 17.4480
71 24 0.0340 11.3821 8.3383 24.4011 0.0000 18.2578
72 24 1.6041 13.0499 10.1865 31.7031 0.0000 16.1856
73 24 0.3063 11.6127 11.8853 27.2820 0.0000 20.7644
74 24 1.4953 13.1043 12.9645 26.2052 0.0000 18.1253
75 24 0.1854 11.7348 14.5313 31.9392 0.0000 21.4656
76 24 1.2591 12.6481 16.0742 24.3654 0.0000 20.0334
77 24 -0.2667 11.7424 17.4888 27.8561 0.0000 21.6233
78 24 1.3271 13.3467 18.8894 29.6962 0.0000 17.9991
79 24 -0.3107 11.6853 20.2737 29.0604 0.0000 20.6851
80 24 1.4917 13.2103 22.2013 24.6785 0.0000 16.7605
81 24 0.1798 14.6025 -0.2049 32.4424 0.0000 20.3630
82 24 1.3860 16.0209 1.6840 27.3910 0.0000 16.3436
83 24 0.1237 14.5647 2.8440 34.1191 0.0000 16.3107
84 24 1.0780 15.4977 4.4712 27.0557 0.0000 21.1031
85 24 0.0126 14.9084 5.7559 31.3068 0.0000 17.6987
86 24 1.6023 16.1738 7.2472 27.2147 0.0000 17.3508
87 24 0.1698 14.3997 8.4971 26.8138 0.0000 16.3631
88 24 1.5282 16.0147 9.9242 29.9423 0.0000 19.9386
89 24 0.2630 14.4801 11.6113 24.3210 0.0000 19.1015
90 24 1.6670 15.9159 12.9041 25.4080 0.0000 16.3074
91 24 0.0338 14.4767 14.6252 32.9393 0.0000 18.9879
92 24 1.6190 15.9080 16.2604 26.0897 0.0000 16.6876
93 24 -0.0874 14.3258 17.4538 28.1882 0.0000 18.6903
94 24 1.3735 15.8855 18.9563 29.5062 0.0000 16.9560
95 24 0.2364 14.5640 20.3447 33.2023 0.0000 16.2520
96 24 1.3719 16.2540 21.8793 28.6499 0.0000 19.0594
97 24 0.0207 17.5907 -0.1079 31.5629 0.0000 17.4618
98 24 1.4309 18.8499 1.5178 31.8708 0.0000 19.1006
99 24 -0.0986 17.7486 3.0587 23.9049 0.0000 16.8692
100 24 1.2663 18.9629 4.2576 31.0913 0.0000 17.3664
101 24 0.2236 17.5873 5.5787 32.4538 0.0000 16.9445
102 24 1.2096 18.7551 7.6389 23.4020 0.0000 17.6691
103 24 -0.0579 17.2990 9.0225 26.4381 0.0000 18.9564
104 24 1.5509 18.6228 9.9813 27.2321 0.0000 18.6829
105 24 0.0877 17.4921 11.5939 29.9662 0.0000 20.0663
106 24 1.3470 18.6941 13.1634 27.1975 0.0000 18.5953
107 24 -0.0108 17.1346 14.6970 23.7961 0.0000 21.0691
108 24 1.7074 18.8819 16.0619 24.6248 0.0000 18.1313
109 24 -0.0950 17.4631 16.9793 31.1962 0.0000 20.9770
110 24 1.5188 18.9956 18.5869 23.3128 0.0000 16.2646
111 24 0.1315 17.3962 20.3587 29.3910 0.0000 20.3250
112 24 1.4905 18.6998 21.9446 34.8259 0.0000 21.1442
113 24 0.1713 20.3774 -0.0803 23.3143 0.0000 20.2404
114 24 1.3585 21.9548 1.5603 33.5693 0.0000 19.7232
115 24 0.2861 20.3198 2.9004 32.5487 0.0000 20.5431
116 24 1.4025 21.4362 4.2585 28.5832 0.0000 17.4014
117 24 0.1728 20.6583 5.7833 26.0102 0.0000 18.5789
118 24 1.4820 21.9941 7.3351 32.3628 0.0000 19.4765
119 24 -0.2456 19.8209 9.1282 30.6302 0.0000 20.0759
120 24 1.4131 21.9480 10.1453 25.4968 0.0000 17.7102
121 24 0.0348 20.3061 11.9747 25.7230 0.0000 20.0871
122 24 1.4413 21.9882 13.0374 30.8123 0.0000 20.0655
123 24 0.1357 20.1954 14.7213 33.4303 0.0000 16.2767
124 24 1.4330 21.7798 16.0099 31.5493 0.0000 18.8908
125 24 -0.0829 20.4540 17.5503 30.7407 0.0000 17.4349
126 24 1.7328 21.6775 18.9940 24.2667 0.0000 17.2760
127 24 0.1773 20.3297 20.3299 24.2975 0.0000 17.6591
128 24 1.2650 21.8620 21.8398 31.3216 0.0000 18.0372
129 24 3.0648 -0.1649 -0.1256 28.6611 0.0000 18.6849
130 24 4.1184 1.6191 1.3454 28.0275 0.0000 16.8037
131 24 2.9234 0.1603 2.7686 25.3644 0.0000 16.2713
132 24 4.1310 1.2211 4.5934 31.2926 0.0000 17.7854
133 24 2.8357 -0.0102 5.6872 31.1527 0.0000 17.6259
134 24 4.4258 1.5439 7.5790 30.3660 0.0000 16.7202
135 24 3.3610 -0.2023 8.8373 25.9668 0.0000 20.3261
136 24 4.3195 1.4958 10.1634 33.2875 0.0000 20.9649
137 24 2.6995 0.0299 11.4997 34.8339 0.0000 19.9592
138 24 4.6603 1.1904 12.9121 28.9352 0.0000 17.1327
139 24 2.9965 -0.0381 14.5632 26.9570 0.0000 18.5126
140 24 4.2471 1.4606 15.7510 24.2764 0.0000 16.9736
141 24 2.8517 0.3431 17.2581 29.5937 0.0000 20.1900
142 24 4.5644 1.3854 18.9162 28.8939 0.0000 16.0712
143 24 3.1151 -0.0347 20.5560 24.6148 0.0000 21.4211
144 24 4.1651 1.5125 21.7670 33.3901 0.0000 20.3908
145 24 2.6827 2.8680 -0.0653 30.9136 0.0000 18.2100
146 24 4.1151 4.3660 1.2558 26.9081 0.0000 16.8530
147 24 3.1682 3.0296 2.9208 24.3231 0.0000 19.1885
148 24 4.5415 4.2084 4.6223 30.4729 0.0000 20.3305
149 24 2.8567 2.9056 5.8945 32.6144 0.0000 18.3355
150 24 4.5278 4.4367 7.3059 29.7950 0.0000 19.2957
151 24 2.8307 2.8837 8.7626 24.2402 0.0000 16.5791
152 24 4.6780 4.3992 10.0882 32.4743 0.0000 20.7424
153 24 2.9551 2.8050 11.6285 31.2337 0.0000 16.1455
154 24 4.4501 4.2273 13.2909 28.7234 0.0000 16.3394
155 24 3.0954 2.9275 14.5808 23.9009 0.0000 20.0615
156 24 4.3002 4.6803 16.0408 23.3767 0.0000 16.1308
157 24 2.3536 3.0431 17.1241 34.5060 0.0000 21.6006
158 24 4.4439 4.1346 18.9270 30.8093 0.0000 21.3773
159 24 3.1152 2.7668 20.4743 26.5191 0.0000 18.1175
160 24 4.5271 4.4957 21.6630 33.6550 0.0000 17.9589
161 24 3.0395 6.0183 -0.0579 28.8272 0.0000 16.7821
162 24 4.4431 7.3426 1.6467 34.0238 0.0000 17.9219
163 24 3.0116 5.7644 2.8388 27.3944 0.0000 19.2478
164 24 4.4199 7.0834 4.4946 32.9314 0.0000 16.0336
165 24 3.1656 5.8559 5.7685 31.8526 0.0000 16.3843
166 24 4.1127 7.7431 7.4769 33.4856 0.0000 19.9786
167 24 3.0707 5.6360 8.7131 31.6930 0.0000 18.7153
168 24 4.5249 7.5159 10.6368 27.0142 0.0000 19.3816
169 24 2.8870 6.0207 11.5364 32.7179 0.0000 16.3685
170 24 4.2851 7.3004 12.9789 29.6053 0.0000 16.4292
171 24 2.8520 5.8926 14.5609 29.3946 0.0000 18.1074
172 24 4.2774 6.9773 15.8677 30.4674 0.0000 20.4607
173 24 3.0015 5.7848 17.4359 26.7268 0.0000 20.5850
174 24 4.2330 7.3552 18.7752 24.7482 0.0000 16.9917
175 24 2.8269 5.9697 20.1641 23.6848 0.0000 16.2610
176 24 4.6782 7.2449 22.0785 31.6318 0.0000 18.2036
177 24 3.1205 8.6164 -0.1520 28.1704 0.0000 21.3676
178 24 4.2906 10.1101 1.7459 28.5748 0.0000 21.5490
179 24 2.7403 8.6434 2.9635 26.5700 0.0000 16.2747
180 24 4.5913 10.0676 4.2458 26.3506 0.0000 16.4057
181 24 2.9640 8.8151 5.9100 24.0370 0.0000 17.3969
182 24 4.3832 10.3479 7.5015 25.6472 0.0000 19.2146
183 24 3.2831 8.4766 8.8297 28.3287 0.0000 17.6569
184 24 4.3173 10.2868 10.1634 26.8822 0.0000 19.0867
185 24 2.7127 8.7110 11.7103 25.0868 0.0000 19.7778
186 24 4.2806 10.2183 13.4202 27.0092 0.0000 19.1680
187 24 2.8590 8.8197 14.6393 24.3161 0.0000 18.1147
188 24 4.4196 10.0084 15.9005 34.0285 0.0000 19.5702
189 24 2.6537 8.7613 17.6047 24.9015 0.0000 21.4843
190 24 4.4455 10.4002 18.9123 31.7328 0.0000 19.7830
191 24 3.0809 8.6166 20.6299 28.2611 0.0000 16.4005
192 24 4.1031 10.0423 21.7566 33.6948 0.0000 18.3380
193 24 3.2314 11.8263 0.0900 25.9499 0.0000 20.1129
194 24 4.2225 13.3698 1.4779 26.3065 0.0000 19.7566
195 24 2.6583 11.8334 2.9178 33.7719 0.0000 20.4711
196 24 3.8356 12.9361 4.4952 25.0210 0.0000 17.3163
197 24 2.7906 11.5004 5.6930 24.3870 0.0000 16.7976
198 24 4.1452 13.2691 7.0636 33.8252 0.0000 21.3799
199 24 2.8480 11.4732 8.7753 33.2330 0.0000 21.4162
200 24 4.5129 13.2295 10.0934 24.5914 0.0000 20.3950
201 24 3.0054 11.9486 12.0346 32.8978 0.0000 19.4880
202 24 4.6145 13.0545 13.1059 30.4737 0.0000 16.0441
203 24 2.6578 11.6975 14.5673 32.8102 0.0000 19.3801
204 24 4.2444 13.1823 15.7353 25.3186 0.0000 17.6770
205 24 2.9411 11.6767 17.5433 28.8094 0.0000 20.5315
206 24 4.6230 13.1174 18.8857 33.4048 0.0000 17.6747
207 24 2.9933 11.4949 20.6107 29.7143 0.0000 20.0576
208 24 4.3104 13.2627 21.9350 32.2520 0.0000 21.3178
209 24 2.9372 14.6895 -0.1871 26.4681 0.0000 17.6074
210 24 4.4541 15.8221 1.5060 25.1322 0.0000 19.2383
211 24 2.7191 14.5510 3.0208 34.6091 0.0000 18.8283
212 24 4.4726 15.9132 4.5278 29.3320 0.0000 17.6865
213 24 3.0204 14.3616 5.7551 31.7284 0.0000 16.3683
214 24 4.4972 16.0902 7.2760 31.6669 0.0000 18.2005
215 24 2.7705 14.5500 8.5729 30.7511 0.0000 19.6672
216 24 4.6822 16.0452 9.8319 25.5053 0.0000 17.0491
217 24 2.7425 14.6180 11.5908 28.6720 0.0000 20.2577
218 24 4.3549 16.1658 13.0345 26.5270 0.0000 16.2366
219 24 2.7174 14.7544 14.5641 28.4794 0.0000 18.2966
220 24 4.6230 16.1532 16.1784 33.2749 0.0000 20.5470
221 24 2.7747 14.5588 17.3097 30.0637 0.0000 20.3262
222 24 4.2799 15.9514 18.9978 26.1610 0.0000 19.2192
223 24 3.1428 14.7728 20.0467 32.6570 0.0000 20.7705
224 24 4.7165 15.6033 21.6499 26.0561 0.0000 18.7185
225 24 2.7859 17.3955 -0.0505 24.0716 0.0000 16.1118
226 24 4.3190 18.8402 1.3708 29.7963 0.0000 17.3139
227 24 2.8316 17.6326 3.0691 23.4434 0.0000 19.3078
228 24 4.3051 18.8641 4.0938 27.4618 0.0000 20.3488
229 24 2.6836 17.6367 5.7927 28.1432 0.0000 20.8588
230 24 4.4493 18.7614 7.4824 25.4169 0.0000 18.5127
231 24 2.9402 17.5693 8.8651 29.6933 0.0000 21.4115
232 24 4.2220 18.8784 10.0261 34.6484 0.0000 18.7600
233 24 2.3845 17.2031 11.5501 32.0849 0.0000 16.9986
234 24 4.2092 18.8781 12.9607 24.5392 0.0000 18.3646
235 24 2.8395 17.5446 14.7107 32.7673 0.0000 20.9123
236 24 4.2473 19.3353 16.0033 28.8906 0.0000 19.2794
237 24 2.9136 17.1623 17.5266 26.1940 0.0000 18.7986
238 24 4.4950 18.7365 19.0380 26.4452 0.0000 21.2957
239 24 3.2261 17.5213 20.4344 31.4234 0.0000 16.5439
240 24 4.3116 18.8504 21.9802 33.9089 0.0000 17.8351
241 24 2.7523 20.2297 0.2452 33.6445 0.0000 18.0671
242 24 4.1889 21.8647 1.7665 29.4735 0.0000 18.6000
243 24 2.7470 20.1772 3.1192 34.3317 0.0000 19.4904
244 24 4.2296 21.8955 4.6303 26.5385 0.0000 17.2318
245 24 2.7439 20.3383 5.8992 34.0686 0.0000 16.8783
246 24 4.1439 21.7881 7.1124 33.2354 0.0000 16.7866
247 24 2.8084 20.2859 8.6252 29.8919 0.0000 17.8764
248 24 4.3881 21.6830 10.4846 29.5540 0.0000 16.1671
249 24 2.8685 20.3121 11.5151 31.4651 0.0000 17.9009
250 24 4.3161 21.6162 13.1482 27.1483 0.0000 19.2112
251 24 2.8301 20.4058 14.3597 31.7845 0.0000 18.6772
252 24 4.4398 22.1258 15.6660 32.7768 0.0000 17.1477
253 24 3.1070 20.4819 17.2485 31.0328 0.0000 18.6068
254 24 4.3840 21.9494 18.7591 29.7700 0.0000 18.2769
255 24 2.7989 20.3254 20.2675 34.8670 0.0000 20.7257
256 24 4.6114 22.0043 21.8629 31.2598 0.0000 20.9901
257 24 6.0740 -0.0236 0.1047 34.4691 0.0000 18.5378
258 24 7.5400 1.6726 1.5550 27.0719 0.0000 20.3898
259 24 5.7544 0.0895 2.9821 32.5809 0.0000 21.2025
260 24 7.2327 1.4431 4.2188 30.1258 0.0000 21.1489
261 24 5.8347 0.1076 5.7420 30.1281 0.0000 21.1779
262 24 7.2765 1.4802 7.2816 34.0419 0.0000 18.9709
263 24 5.7737 -0.0358 8.6520 28.2777 0.0000 17.1673
264 24 7.2803 1.4433 10.1126 33.2588 0.0000 18.3441
265 24 5.9011 0.0778 11.9463 30.6943 0.0000 17.2041
266 24 7.3796 1.6204 13.0579 32.9559 0.0000 18.1147
267 24 5.4678 -0.1524 14.5302 27.4474 0.0000 17.0095
268 24 7.1411 1.2782 15.8452 27.5957 0.0000 20.6855
269 24 5.8409 0.1997 17.6166 28.4953 0.0000 21.0029
270 24 7.0682 1.5159 18.8561 31.2694 0.0000 16.5346
271 24 5.6491 -0.1380 20.0679 33.7746 0.0000 20.2338
272 24 7.2938 1.3303 22.0944 26.9159 0.0000 21.3685
273 24 5.6334 2.7543 -0.1476 23.6409 0.0000 18.2739
274 24 7.2482 4.1526 1.6839 24.0006 0.0000 16.4297
275 24 5.8777 3.0163 3.1151 30.6706 0.0000 17.4203
276 24 7.0521 4.4000 4.5391 30.6602 0.0000 16.0978
277 24 5.8031 2.9548 5.9761 32.0527 0.0000 16.5258
278 24 7.4567 4.5681 7.3853 24.1551 0.0000 21.6584
279 24 5.9638 2.7695 8.7911 26.4217 0.0000 20.2234
280 24 7.4216 4.4626 10.0658 30.0825 0.0000 16.5623
281 24 5.8965 3.0363 11.6891 26.3395 0.0000 20.1881
282 24 7.3908 4.1414 13.3147 30.4255 0.0000 19.1469
283 24 5.6827 2.6832 14.7360 33.2728 0.0000 18.1031
284 24 7.3956 4.1612 15.7683 27.5266 0.0000 16.0334
285 24 6.0217 2.7656 17.4273 28.0257 0.0000 21.4709
286 24 7.5141 4.1059 18.5813 27.1935 0.0000 17.5443
287 24 6.2711 2.7851 20.1528 25.6116 0.0000 17.5564
288 24 7.1880 4.1077 22.1867 31.0998 0.0000 16.1467
289 24 5.5198 5.9265 0.0879 31.4208 0.0000 18.0248
290 24 7.4365 6.8775 1.4688 24.8656 0.0000 18.7063
291 24 5.8405 5.7093 2.8590 28.7678 0.0000 19.7324
292 24 7.5938 7.1607 4.1932 34.4163 0.0000 19.7630
293 24 6.0377 5.6901 5.8889 33.7639 0.0000 20.4623
294 24 7.0696 7.2538 7.3266 29.3193 0.0000 19.7209
295 24 5.7656 6.1519 8.7835 31.8273 0.0000 19.6322
296 24 7.3193 7.2639 9.9148 26.5888 0.0000 21.1517
297 24 5.8188 5.8592 11.5903 25.4268 0.0000 17.0256
298 24 7.5334 7.0740 13.0564 29.2177 0.0000 17.6839
299 24 5.8275 5.9209 14.4314 25.2825 0.0000 18.0819
300 24 7.3699 7.1904 16.0721 28.1970 0.0000 18.7918
301 24 5.5847 5.7644 17.5670 29.6436 0.0000 20.8803
302 24 7.2549 7.3117 19.0090 29.0908 0.0000 19.6128
303 24 5.9991 6.0017 20.3042 34.8799 0.0000 18.2562
304 24 7.2318 7.3736 22.1526 24.1321 0.0000 18.6087
305 24 5.9437 8.7649 0.4321 30.1686 0.0000 17.6308
306 24 6.9287 10.1756 1.5132 26.9618 0.0000 18.3583
307 24 5.7103 8.8323 2.8302 34.4124 0.0000 18.9052
308 24 7.1377 10.2730 4.5505 26.3071 0.0000 16.3220
309 24 5.7015 8.5993 6.0083 25.9378 0.0000 17.4603
310 24 7.5036 10.1983 7.4001 29.3521 0.0000 18.7252
311 24 5.7468 8.7892 8.7723 30.1183 0.0000 18.0267
312 24 7.3014 10.4650 10.2462 24.2414 0.0000 20.5671
313 24 5.5321 8.5619 11.6875 32.8282 0.0000 18.5344
314 24 7.1223 10.4168 12.8879 26.5265 0.0000 17.4163
315 24 5.7854 8.7027 14.6629 23.4212 0.0000 20.0619
316 24 7.3335 9.9378 16.0738 26.5540 0.0000 18.7186
317 24 5.5454 8.7451 17.0063 28.3348 0.0000 19.7991
318 24 7.5436 10.0712 18.9865 33.0603 0.0000 21.4889
319 24 5.7984 8.6623 20.2389 26.9554 0.0000 19.7281
320 24 7.0243 10.3588 21.9223 30.3827 0.0000 18.7016
321 24 5.8354 11.7102 -0.0957 30.1949 0.0000 16.8158
322 24 7.3326 13.1088 1.3811 33.8482 0.0000 17.9184
323 24 5.6656 11.6475 2.9349 31.4030 0.0000 17.0756
324 24 7.3265 13.2861 4.3862 24.2610 0.0000 19.0868
325 24 5.6079 11.6258 5.8350 25.0118 0.0000 16.8417
326 24 7.2743 13.0127 7.2400 33.2475 0.0000 17.8145
327 24 5.9663 11.3846 8.4781 31.6147 0.0000 16.9117
328 24 7.3626 13.2586 10.0791 27.3126 0.0000 16.4925
329 24 5.8972 11.6412 11.6270 30.3499 0.0000 17.7766
330 24 7.4049 13.0748 12.8543 34.3414 0.0000 18.6787
331 24 5.7412 11.4793 14.3792 28.2335 0.0000 21.1284
332 24 7.1786 13.1018 15.8838 25.0945 0.0000 16.5016
333 24 5.8779 11.4421 17.1724 29.5334 0.0000 16.0911
334 24 7.4341 13.3145 18.9583 29.5674 0.0000 18.7491
335 24 5.3794 11.6517 20.6029 27.4056 0.0000 20.0202
336 24 7.2553 12.9732 21.5063 31.3738 0.0000 17.6878
337 24 5.8810 14.7075 -0.1262 31.1852 0.0000 17.0179
338 24 7.3299 15.9853 1.4642 28.5670 0.0000 16.8416
339 24 5.6231 14.5592 2.6115 26.8443 0.0000 20.3568
340 24 7.3601 16.4220 4.1349 25.9968 0.0000 18.5858
341 24 5.6456 14.4770 5.5710 31.5148 0.0000 19.4512
342 24 7.6296 16.1105 7.2737 34.4814 0.0000 19.7843
343 24 6.1359 14.8811 8.7365 32.6335 0.0000 18.3581
344 24 7.4756 15.7889 10.0487 26.0423 0.0000 21.2941
345 24 6.0806 14.5862 11.8636 31.8668 0.0000 20.0837
346 24 7.2498 15.8636 13.0228 26.1993 0.0000 16.1847
347 24 5.9924 14.4978 14.7725 33.7255 0.0000 21.5093
348 24 7.2047 16.0285 16.1493 23.8906 0.0000 16.8663
349 24 6.1431 14.4486 17.6836 28.4162 0.0000 20.0290
350 24 7.0676 16.0718 18.8205 31.9039 0.0000 20.5909
351 24 5.5893 14.5250 20.2309 28.4881 0.0000 18.2902
352 24 7.1729 15.9167 21.7754 33.2756 0.0000 19.3325
353 24 5.8705 17.2222 -0.0841 23.3079 0.0000 16.0771
354 24 7.3063 18.9594 1.5358 26.1104 0.0000 20.9359
355 24 6.0148 17.1482 3.0865 27.2740 0.0000 20.8957
356 24 7.5273 18.8510 4.6445 32.5337 0.0000 18.1178
357 24 5.9504 17.3447 5.6749 25.9849 0.0000 21.2026
358 24 7.2298 18.8622 7.4157 32.1039 0.0000 19.5728
359 24 5.8797 17.6777 8.6776 34.8439 0.0000 20.1260
360 24 7.2475 18.9726 10.2904 28.7399 0.0000 16.9888
361 24 5.8481 17.4113 11.7401 34.5475 0.0000 17.9785
362 24 7.6901 18.7955 13.1207 26.7073 0.0000 16.0672
363 24 5.7558 17.3188 14.6791 26.3045 0.0000 19.3128
364 24 7.3421 18.9248 15.8354 25.9213 0.0000 16.3802
365 24 5.7816 17.6940 17.4926 29.4906 0.0000 17.9488
366 24 7.3449 18.8032 18.7929 23.6341 0.0000 19.4476
367 24 5.7439 17.0767 20.2907 30.8934 0.0000 16.5954
368 24 7.4821 18.8137 22.0652 26.6786 0.0000 21.6246
369 24 6.0720 20.5555 0.1529 24.7567 0.0000 17.4973
370 24 7.1639 22.2608 1.1262 23.9612 0.0000 19.6586
371 24 5.5209 20.1802 2.9770 25.0801 0.0000 16.6305
372 24 7.1327 21.9114 4.2275 26.4195 0.0000 16.8576
373 24 5.8124 20.4627 6.2207 25.8078 0.0000 18.8707
374 24 7.4386 21.7956 7.2709 23.9036 0.0000 17.5413
375 24 5.9038 20.4600 8.7781 27.2612 0.0000 17.5645
376 24 7.1309 22.1003 10.2370 33.3610 0.0000 16.5448
377 24 5.9090 20.4229 11.7702 24.4319 0.0000 17.9802
378 24 6.9298 21.9704 13.2929 31.0379 0.0000 19.1594
379 24 5.7702 20.2616 14.3716 33.0446 0.0000 19.0360
380 24 7.1595 21.7700 16.1432 26.9172 0.0000 19.7753
381 24 5.8093 20.1039 17.7109 25.7290 0.0000 16.4215
382 24 7.3676 21.5730 18.7004 24.3634 0.0000 19.5313
383 24 5.7874 20.4804 20.4443 29.7154 0.0000 17.5050
384 24 7.3526 22.0687 22.1128 34.2820 0.0000 20.3700
385 24 8.8250 -0.0973 -0.1972 24.6763 0.0000 19.6256
386 24 10.0470 1.2589 1.5284 25.5832 0.0000 16.6719
387 24 8.5541 0.0450 2.9554 25.9421 0.0000 21.3364
388 24 10.2733 1.6671 4.1106 30.6025 0.0000 16.1857
389 24 8.7628 0.2278 6.0208 34.8457 0.0000 17.9657
390 24 10.4666 1.4618 7.3309 31.4965 0.0000 20.1625
391 24 8.9132 -0.0142 8.9111 27.4283 0.0000 21.5552
392 24 10.0309 1.3373 10.0736 27.5003 0.0000 20.0281
393 24 8.6991 0.0354 11.9970 33.7966 0.0000 17.4407
394 24 10.3206 1.3158 12.9652 28.9845 0.0000 19.6886
395 24 8.4784 -0.0453 14.5599 25.3926 0.0000 16.5400
396 24 10.0256 1.5811 16.1665 24.2771 0.0000 18.7340
397 24 8.6399 0.0390 17.5419 33.5076 0.0000 18.6969
398 24 10.3491 1.1309 19.0035 23.6273 0.0000 19.0170
399 24 8.5017 0.1392 20.5314 30.1949 0.0000 20.4420
400 24 10.2928 1.4862 21.9027 29.7844 0.0000 19.3820
401 24 8.8139 2.6742 -0.1520 23.9397 0.0000 16.1474
402 24 9.9267 4.1767 1.3793 31.0152 0.0000 18.1968
403 24 8.6863 2.7388 2.9939 27.3462 0.0000 17.8778
404 24 10.3138 4.3063 4.5227 29.2517 0.0000 19.6441
405 24 8.5780 3.1578 6.0625 34.3297 0.0000 20.3361
406 24 10.0476 4.4388 7.5545 26.0815 0.0000 16.8295
407 24 8.6595 2.7808 8.7429 25.1863 0.0000 17.3686
408 24 10.1333 3.9750 10.3956 27.0212 0.0000 17.5679
409 24 8.9516 2.9223 11.6071 34.4165 0.0000 17.7952
410 24 10.1127 4.7344 12.8534 32.2198 0.0000 16.6191
411 24 8.7609 2.9291 14.5773 29.0049 0.0000 16.9103
412 24 10.0673 4.3530 16.0704 28.1558 0.0000 16.6856
413 24 8.6037 2.9893 17.3022 28.8971 0.0000 20.1179
414 24 10.1360 4.4446 18.6644 32.8824 0.0000 21.3950
415 24 8.7659 2.9606 20.2091 26.2399 0.0000 16.1180
416 24 10.2213 4.3364 21.7864 25.7320 0.0000 19.7790
417 24 8.9089 5.5113 0.4871 24.9562 0.0000 19.1790
418 24 10.1745 7.2607 1.5706 26.3694 0.0000 18.0405
419 24 8.5690 5.6340 3.1697 27.9860 0.0000 16.7548
420 24 10.2744 7.2893 4.2895 30.8085 0.0000 16.1202
421 24 8.7049 5.9018 5.9486 32.9802 0.0000 21.2588
422 24 10.1858 7.2833 7.5862 28.0937 0.0000 20.1716
423 24 9.1926 5.6959 8.6251 27.8577 0.0000 17.7821
424 24 10.5817 7.1477 10.3257 34.7109 0.0000 17.6607
425 24 9.0253 5.8639 11.5601 33.7241 0.0000 16.4528
426 24 9.9943 7.1785 13.1938 24.4062 0.0000 18.6023
427 24 9.1663 5.6348 14.8724 25.0676 0.0000 18.0315
428 24 9.9378 7.0329 16.1694 23.5215 0.0000 17.7751
429 24 8.5709 5.7521 17.5944 26.9209 0.0000 21.2334
430 24 10.0390 7.5701 18.8655 31.4507 0.0000 18.8410
431 24 8.5079 5.8967 20.2488 32.7079 0.0000 16.7793
432 24 10.4729 7.1338 21.8498 34.8645 0.0000 20.4262
433 24 9.1312 8.3525 0.0031 26.2977 0.0000 20.8188
434 24 10.2057 10.1380 1.4959 25.4177 0.0000 21.5600
435 24 8.9083 8.5447 2.6092 29.7754 0.0000 21.1188
436 24 10.2309 10.2379 4.3436 23.6551 0.0000 20.8974
437 24 8.6243 8.7724 5.8668 29.8923 0.0000 20.2349
438 24 10.4677 10.1810 7.4341 28.5715 0.0000 19.5002
439 24 8.9209 8.6952 8.6662 32.5312 0.0000 16.2406
440 24 10.2164 10.2404 10.0342 26.5206 0.0000 20.9189
441 24 8.6138 8.9007 11.4470 29.2172 0.0000 18.0954
442 24 10.0966 10.5222 13.2023 32.7961 0.0000 20.1745
443 24 8.6108 8.5035 14.6805 26.6856 0.0000 19.9934
444 24 10.3181 10.3593 15.9562 24.1201 0.0000 21.3792
445 24 8.5154 8.8748 17.4939 32.2849 0.0000 16.2840
446 24 9.9268 10.2925 18.8998 27.2423 0.0000 19.9857
447 24 8.8561 8.5869 20.5522 25.7759 0.0000 16.5426
448 24 9.9285 10.3109 22.0544 33.1845 0.0000 18.0951
449 24 8.7082 11.5181 -0.1946 30.0536 0.0000 20.8669
450 24 10.3733 13.0783 1.4074 34.8512 0.0000 18.8895
451 24 8.7663 11.8705 2.9903 32.3348 0.0000 17.8491
452 24 10.1587 12.8983 4.5240 29.7065 0.0000 16.4329
453 24 8.6538 11.9903 5.8370 34.6907 0.0000 17.5311
454 24 10.1424 12.9963 7.2247 33.5045 0.0000 18.0816
455 24 8.7920 11.6944 8.6115 27.1851 0.0000 17.4648
456 24 10.0506 12.9966 10.2101 25.1525 0.0000 17.3597
457 24 8.3658 11.6774 11.7729 29.7211 0.0000 16.8722
458 24 10.3224 13.0896 12.9221 27.2714 0.0000 16.3844
459 24 8.6876 11.7180 14.4950 33.1699 0.0000 18.2255
460 24 10.2593 12.9533 15.7522 30.5510 0.0000 19.8453
461 24 8.8204 11.7271 17.5748 28.1707 0.0000 17.7913
462 24 10.1487 13.0072 18.9406 25.5195 0.0000 20.2215
463 24 8.7735 11.7146 20.5627 25.9827 0.0000 20.5513
464 24 10.1301 13.2144 21.5150 28.5244 0.0000 16.7222
465 24 8.7482 14.9246 0.0234 23.3536 0.0000 21.4506
466 24 10.1914 16.1545 1.5427 27.3102 0.0000 21.5371
467 24 8.9381 14.5496 2.8576 25.9470 0.0000 18.3503
468 24 10.5330 15.9497 4.4057 23.6229 0.0000 20.2243
469 24 8.8759 14.6341 5.7820 34.2771 0.0000 16.2498
470 24 9.8731 16.0245 7.1503 33.2964 0.0000 20.2402
471 24 8.7402 14.2634 8.6494 24.0867 0.0000 17.4601
472 24 10.2952 16.1569 10.0524 26.9454 0.0000 20.2641
473 24 8.5586 14.8175 11.6547 27.1434 0.0000 19.0860
474 24 10.1192 15.7237 13.2359 23.9782 0.0000 18.1273
475 24 8.8619 14.2288 14.5888 30.6010 0.0000 17.9531
476 24 10.0624 15.6715 15.6190 29.6776 0.0000 20.9472
477 24 8.4959 14.6231 17.3957 26.2053 0.0000 19.7654
478 24 10.0566 16.0569 18.9592 27.6584 0.0000 18.8718
479 24 8.6845 14.3727 20.1986 32.5075 0.0000 21.1181
480 24 10.1658 15.8117 22.0278 33.4114 0.0000 20.5697
481 24 8.8177 17.4310 0.0361 31.0816 0.0000 19.9118
482 24 10.2405 19.1261 1.2873 26.6156 0.0000 18.6913
483 24 8.7926 17.5775 3.0321 30.5449 0.0000 20.0930
484 24 9.8841 18.4905 4.3302 23.6794 0.0000 21.2110
485 24 8.7234 17.4839 5.9030 29.9055 0.0000 21.0766
486 24 10.1292 19.1209 7.1558 28.0152 0.0000 19.0513
487 24 8.9395 17.4524 8.6841 31.8625 0.0000 18.7075
488 24 10.2476 18.5803 10.0580 27.9338 0.0000 16.4650
489 24 8.4916 17.1297 11.7140 26.2830 0.0000 18.4200
490 24 10.1206 19.0695 12.7930 29.2288 0.0000 17.9873
491 24 8.7120 17.2229 14.7410 29.6165 0.0000 16.4545
492 24 10.4231 19.3806 15.7106 28.6831 0.0000 16.3584
493 24 8.7247 17.1384 17.3852 32.1639 0.0000 20.5548
494 24 10.1881 19.2159 19.1251 27.2240 0.0000 20.1913
495 24 8.9714 17.5658 20.2283 28.5482 0.0000 17.1362
496 24 10.1968 18.7779 21.8791 28.1070 0.0000 17.2366
497 24 8.6527 20.2386 0.0487 33.3815 0.0000 16.6791
498 24 10.2755 21.8263 1.4052 27.1890 0.0000 17.9068
499 24 8.5613 20.6413 2.8513 34.3943 0.0000 19.4795
500 24 10.0846 21.8537 4.3549 30.4127 0.0000 16.1701
501 24 8.9827 20.4695 5.8979 34.4581 0.0000 18.3236
502 24 10.1744 22.0584 7.2568 30.4890 0.0000 17.9395
503 24 8.8014 20.1504 8.6389 28.3576 0.0000 21.1442
504 24 10.2197 21.8368 10.4366 25.0431 0.0000 17.4696
505 24 8.7141 20.3474 11.9039 30.7806 0.0000 19.2532
506 24 10.0947 21.7199 12.9970 29.2335 0.0000 16.8236
507 24 8.8985 20.4206 14.4669 33.1138 0.0000 16.4378
508 24 10.0038 21.6182 15.8900 28.3764 0.0000 16.5424
509 24 8.6931 20.2737 17.6597 23.8739 0.0000 19.6604
510 24 10.0937 21.9342 18.9411 26.8326 0.0000 20.7921
511 24 8.7700 20.5865 20.4049 24.7651 0.0000 16.7798
512 24 10.0923 21.8756 21.9620 28.0552 0.0000 19.1619
513 24 11.7818 0.1972 0.1507 33.9937 0.0000 17.1614
514 24 13.0492 1.2112 1.4549 29.9133 0.0000 16.8829
515 24 11.8886 -0.0881 3.0600 32.9615 0.0000 18.0119
516 24 13.3400 1.4667 4.3355 25.9192 0.0000 17.1846
517 24 11.8231 0.1460 5.7290 34.6617 0.0000 16.6847
518 24 13.1890 1.7274 7.3506 29.8373 0.0000 19.4986
519 24 11.5515 0.2749 8.6933 23.6989 0.0000 18.2288
520 24 12.8952 1.3240 10.0692 34.7023 0.0000 20.4002
521 24 11.8169 -0.0736 11.5262 29.9782 0.0000 18.4694
522 24 13.1527 1.1357 12.9395 34.2571 0.0000 18.6363
523 24 11.7069 -0.0445 14.3168 27.9378 0.0000 16.2298
524 24 13.0321 1.4187 15.7662 26.7071 0.0000 18.0828
525 24 11.8090 0.1128 17.4398 30.8841 0.0000 20.0398
526 24 12.6249 1.6911 18.9375 24.8310 0.0000 19.4192
527 24 11.7489 -0.1297 20.4136 26.4136 0.0000 21.0061
528 24 13.2752 1.4219 21.7246 28.0398 0.0000 18.4749
529 24 11.4608 3.1844 0.2468 25.3129 0.0000 16.5797
530 24 13.0921 4.4762 1.6494 28.7691 0.0000 18.4287
531 24 11.5673 2.9828 2.7994 30.1808 0.0000 20.3499
532 24 13.2613 4.5242 4.6208 25.9279 0.0000 18.8228
533 24 11.5006 2.7264 5.8143 24.8071 0.0000 16.3900
534 24 12.9524 4.2501 7.4480 25.4030 0.0000 20.9657
535 24 11.8336 2.8085 8.8498 27.0842 0.0000 18.0096
536 24 13.2582 4.5907 10.2265 31.7288 0.0000 21.0602
537 24 11.8162 2.7492 11.6217 25.7008 0.0000 19.5006
538 24 13.0973 4.4991 13.2122 27.4295 0.0000 16.1805
539 24 11.5187 2.9548 14.5088 31.8820 0.0000 20.1445
540 24 13.4463 4.4083 16.4065 25.4681 0.0000 20.4181
541 24 11.7186 3.0937 17.6231 24.4875 0.0000 19.0283
542 24 13.1938 4.4015 19.3302 33.9774 0.0000 20.5164
543 24 11.8374 2.8370 20.2650 23.9336 0.0000 20.4969
544 24 13.2601 4.5730 21.8772 24.7191 0.0000 20.4946
545 24 11.4568 5.7489 -0.3089 27.1345 0.0000 21.1375
546 24 13.1042 7.6033 1.3005 33.1759 0.0000 19.6293
547 24 11.6492 5.7412 2.5481 34.2019 0.0000 18.2159
548 24 12.9213 7.2724 4.8314 26.1279 0.0000 18.7445
549 24 11.6796 5.6243 6.0192 26.8368 0.0000 16.8250
550 24 13.1347 7.0855 7.0797 24.4839 0.0000 18.8849
551 24 11.6280 5.7717 8.5937 26.8169 0.0000 20.1810
552 24 13.2245 7.3118 9.9250 28.4915 0.0000 16.2740
553 24 11.3226 5.7873 11.2645 32.3500 0.0000 17.1851
554 24 13.2256 7.3654 12.9164 26.5721 0.0000 20.7575
555 24 11.7180 5.9062 14.4850 32.1889 0.0000 18.7996
556 24 13.1598 7.2209 16.2901 29.3997 0.0000 19.0915
557 24 11.5752 5.9522 17.2581 23.8876 0.0000 20.4693
558 24 13.1074 7.2962 18.9375 26.0645 0.0000 21.6470
559 24 11.8454 5.8540 20.3171 31.9503 0.0000 21.2585
560 24 13.1661 7.4413 21.5577 29.1704 0.0000 19.5270
561 24 11.7041 8.4304 0.0463 30.1996 0.0000 16.1284
562 24 13.0306 10.3087 1.5654 24.5212 0.0000 16.9604
563 24 11.7299 8.6634 3.0760 28.8673 0.0000 17.1148
564 24 12.9232 9.9898 4.1842 31.3440 0.0000 21.6335
565 24 11.5755 8.8009 5.6594 31.0923 0.0000 16.6599
566 24 13.2403 10.2890 7.5283 23.3821 0.0000 20.4585
567 24 11.3908 8.8955 8.7908 30.8492 0.0000 16.9253
568 24 12.7493 10.1285 10.0669 31.7170 0.0000 21.3690
569 24 11.3026 8.4346 11.6032 32.2567 0.0000 19.8287
570 24 13.1176 10.0983 12.9900 33.6213 0.0000 16.9322
571 24 11.6097 9.0252 14.5882 33.6284 0.0000 17.1653