ITEM: TIMESTEP
0
ITEM: NUMBER OF ATOMS
1024
ITEM: BOX BOUNDS pp pp pp
0.0 25.1760
0.0 25.1760
0.0 25.1760
ITEM: ATOMS id type x y z error strain stiffness
1 42 0.0837 0.0525 -0.0421 5.7205 0.0000 5.2820
2 42 1.5308 1.5997 1.5991 4.8779 0.0000 5.7911
3 42 -0.0478 -0.0142 3.1479 5.2965 0.0000 6.0081
4 42 1.5433 1.5756 4.7150 5.1507 0.0000 6.0203
5 42 0.0272 0.0391 6.2630 5.2337 0.0000 5.7216
6 42 1.5487 1.6055 7.8556 5.4583 0.0000 6.1826
7 42 0.0171 0.0192 9.4812 4.7515 0.0000 5.8571
8 42 1.5823 1.5790 11.0627 5.7057 0.0000 4.9514
9 42 0.0132 0.0160 12.5785 5.3645 0.0000 5.0014
10 42 1.6044 1.5650 14.1166 4.0148 0.0000 6.1597
11 42 -0.0351 -0.0619 15.7164 5.1655 0.0000 5.3388
12 42 1.5808 1.5337 17.3318 5.1708 0.0000 5.3653
13 42 -0.0232 -0.0494 18.8868 5.5840 0.0000 5.6997
14 42 1.5465 1.6188 20.4166 4.5012 0.0000 5.5853
15 42 -0.0298 0.0106 22.0111 5.7550 0.0000 5.0993
16 42 1.5773 1.5916 23.6202 5.2163 0.0000 5.8637
17 42 -0.0590 3.1093 0.0124 5.5653 0.0000 6.2308
18 42 1.5817 4.7795 1.6089 5.3697 0.0000 5.0920
19 42 -0.0226 3.1496 3.1609 4.3296 0.0000 6.4307
20 42 1.5834 4.7395 4.6860 4.5652 0.0000 4.8008
21 42 0.0166 3.0865 6.2549 4.5302 0.0000 5.6274
22 42 1.5230 4.7740 7.8278 5.3364 0.0000 6.2152
23 42 0.0266 3.1631 9.4254 5.6442 0.0000 5.6319
24 42 1.5607 4.6764 10.9939 4.7572 0.0000 6.4503
25 42 -0.0452 3.1238 12.6436 5.6963 0.0000 5.0548
26 42 1.5509 4.7341 14.1431 4.2877 0.0000 4.9257
27 42 0.0033 3.1517 15.7135 4.1223 0.0000 5.1902
28 42 1.5625 4.7285 17.3242 4.3088 0.0000 5.5898
29 42 -0.0140 3.1163 18.8963 4.5132 0.0000 5.6998
30 42 1.5390 4.7131 20.3818 4.4462 0.0000 5.8844
31 42 -0.0272 3.1337 22.0315 4.4012 0.0000 5.6155
32 42 1.5990 4.7234 23.5666 4.5033 0.0000 6.3852
33 42 -0.0108 6.2262 0.0295 4.0708 0.0000 5.9161
34 42 1.6160 7.8637 1.5644 5.0205 0.0000 5.3908
35 42 -0.0106 6.3273 3.1379 4.9486 0.0000 5.5205
36 42 1.5925 7.8577 4.6964 4.7364 0.0000 6.3745
37 42 -0.0386 6.3117 6.2605 5.0234 0.0000 5.6559
38 42 1.5587 7.8756 7.8693 5.2113 0.0000 6.2256
39 42 0.0100 6.2222 9.4089 5.5054 0.0000 6.2825
40 42 1.5874 7.8531 11.0098 5.7743 0.0000 6.1724
41 42 0.0344 6.3212 12.5602 5.6713 0.0000 6.1447
42 42 1.6048 7.8509 14.2138 3.9762 0.0000 5.5199
43 42 -0.0494 6.2549 15.7819 3.9688 0.0000 5.8429
44 42 1.5656 7.8625 17.3845 4.5226 0.0000 5.7962
45 42 -0.0720 6.2787 18.8781 5.2869 0.0000 4.9240
46 42 1.5687 7.8712 20.4705 4.6625 0.0000 6.2597
47 42 0.0449 6.3037 22.0905 5.4914 0.0000 5.5744
48 42 1.5932 7.8678 23.6023 5.1810 0.0000 5.4024
49 42 0.0282 9.4463 -0.0069 4.4490 0.0000 5.5944
50 42 1.5768 11.0299 1.5304 5.0690 0.0000 5.6254
51 42 0.0250 9.4661 3.1532 5.7601 0.0000 5.9682
52 42 1.6122 11.0343 4.7345 4.4553 0.0000 5.7175
53 42 0.0089 9.4181 6.2350 5.4634 0.0000 5.0703
54 42 1.5939 10.9955 7.8773 4.8779 0.0000 5.5187
55 42 0.0458 9.4362 9.4277 5.2225 0.0000 6.2271
56 42 1.5627 11.0313 11.0441 5.6478 0.0000 5.4324
57 42 0.0210 9.4493 12.6109 5.6784 0.0000 5.8121
58 42 1.5834 11.0644 14.1110 5.3995 0.0000 5.5949
59 42 -0.0181 9.3932 15.6994 4.6637 0.0000 5.9697
60 42 1.5878 11.0345 17.3452 4.6866 0.0000 4.9652
61 42 -0.0019 9.4108 18.8885 4.3141 0.0000 5.2805
62 42 1.5495 11.0088 20.4302 4.1011 0.0000 6.0289
63 42 -0.0369 9.4008 22.0512 5.2496 0.0000 6.4522
64 42 1.5787 10.9799 23.6247 3.9220 0.0000 5.3390
65 42 -0.0287 12.6227 -0.0296 4.7884 0.0000 5.6851
66 42 1.5277 14.1159 1.5843 4.1482 0.0000 5.5580
67 42 -0.0173 12.5923 3.1337 4.6628 0.0000 6.0627
68 42 1.6316 14.1662 4.7594 3.9455 0.0000 6.1603
69 42 -0.0135 12.5915 6.3071 4.9366 0.0000 5.0074
70 42 1.5838 14.1767 7.8434 5.6804 0.0000 6.0582
71 42 -0.0142 12.6075 9.4319 5.0365 0.0000 5.2607
72 42 1.6123 14.1445 11.0503 5.7552 0.0000 6.1993
73 42 -0.0024 12.5909 12.5984 5.3148 0.0000 5.9459
74 42 1.5816 14.1184 14.1561 4.2715 0.0000 5.4596
75 42 -0.0021 12.6267 15.7395 4.4770 0.0000 5.8641
76 42 1.5934 14.2162 17.2862 5.3805 0.0000 6.1501
77 42 0.0040 12.5589 18.8760 5.3553 0.0000 5.3528
78 42 1.5211 14.1765 20.3895 4.8820 0.0000 5.8044
79 42 0.0178 12.5780 22.0406 5.6712 0.0000 5.8581
80 42 1.5168 14.1613 23.5875 5.4476 0.0000 6.1062
81 42 0.0243 15.7954 0.0342 4.0686 0.0000 4.7912
82 42 1.5795 17.2663 1.5434 5.4514 0.0000 6.1912
83 42 -0.0092 15.6772 3.1528 5.1443 0.0000 6.2643
84 42 1.5890 17.3320 4.7613 4.5634 0.0000 6.2535
85 42 -0.0153 15.7181 6.3007 4.9927 0.0000 5.1862
86 42 1.5811 17.3323 7.8799 4.1677 0.0000 5.6207
87 42 0.0156 15.6776 9.4681 5.1405 0.0000 6.2167
88 42 1.5820 17.2978 10.9835 4.3985 0.0000 5.8149
89 42 0.0551 15.7579 12.6175 4.6288 0.0000 6.2231
90 42 1.5323 17.3462 14.1592 5.7580 0.0000 5.6793
91 42 0.0209 15.7266 15.6856 4.8550 0.0000 4.8144
92 42 1.5835 17.3567 17.3111 3.9887 0.0000 5.2398
93 42 0.0790 15.7400 18.8975 4.8931 0.0000 5.3010
94 42 1.5783 17.3292 20.4591 4.0063 0.0000 6.2229
95 42 0.0246 15.7347 22.0678 4.5669 0.0000 6.0628
96 42 1.5411 17.2738 23.6021 3.9323 0.0000 6.0599
97 42 -0.0410 18.8907 0.0063 5.6278 0.0000 6.4595
98 42 1.5750 20.4905 1.5466 4.4611 0.0000 5.2919
99 42 -0.1040 18.8817 3.1315 4.4213 0.0000 5.7577
100 42 1.5254 20.4743 4.7211 4.9902 0.0000 5.6432
101 42 0.0364 18.8995 6.2624 4.6615 0.0000 6.0964
102 42 1.5571 20.4964 7.8764 5.2367 0.0000 5.8448
103 42 0.0420 18.9168 9.4523 5.2717 0.0000 4.9675
104 42 1.5648 20.4412 11.0256 5.7073 0.0000 4.9419
105 42 -0.0065 18.8755 12.5431 5.1349 0.0000 5.2470
106 42 1.5796 20.4128 14.1948 4.8552 0.0000 6.3391
107 42 -0.0157 18.9140 15.6968 5.2996 0.0000 5.6235
108 42 1.5872 20.4697 17.3014 5.3097 0.0000 6.0708
109 42 0.0100 18.8845 18.8822 4.5367 0.0000 4.9697
110 42 1.5654 20.4351 20.4600 5.1231 0.0000 5.9525
111 42 0.0013 18.8361 22.0173 5.2693 0.0000 5.3170
112 42 1.5155 20.4877 23.5876 5.4254 0.0000 6.3589
113 42 0.0604 21.9970 0.0116 5.2935 0.0000 5.8663
114 42 1.5627 23.6279 1.6200 4.8655 0.0000 5.2006
115 42 -0.0104 22.0670 3.1593 5.1170 0.0000 5.2685
116 42 1.5549 23.5911 4.7384 4.1086 0.0000 6.2630
117 42 0.0477 22.0658 6.2935 4.0931 0.0000 5.4029
118 42 1.5464 23.6455 7.8801 4.5419 0.0000 5.5132
119 42 -0.0080 22.0257 9.4010 4.7620 0.0000 5.8496
120 42 1.5652 23.6043 10.9987 3.8741 0.0000 5.8582
121 42 -0.0086 22.0194 12.5960 3.9590 0.0000 5.4005
122 42 1.5615 23.7124 14.1638 4.8855 0.0000 5.8233
123 42 0.0120 22.0505 15.7174 5.6300 0.0000 5.1055
124 42 1.5510 23.5811 17.3214 5.0404 0.0000 5.1738
125 42 0.0833 22.0086 18.8601 4.0073 0.0000 6.1701
126 42 1.5489 23.6300 20.4311 4.5797 0.0000 6.4399
127 42 0.0071 22.0685 22.0180 5.0274 0.0000 5.0725
128 42 1.5917 23.5974 23.5980 5.0030 0.0000 4.8900
129 42 3.1518 0.0398 0.0184 5.0050 0.0000 5.6076
130 42 4.7742 1.5664 1.5482 4.9787 0.0000 5.0688
131 42 3.1000 -0.0288 3.1717 5.7290 0.0000 5.9697
132 42 4.7165 1.5996 4.7393 4.2158 0.0000 6.0468
133 42 3.1688 -0.0343 6.2662 5.3391 0.0000 5.8299
134 42 4.6951 1.5564 7.8864 5.7511 0.0000 4.9698
135 42 3.1692 -0.0201 9.4902 5.4853 0.0000 5.4727
136 42 4.7387 1.5925 11.0513 5.4615 0.0000 5.5669
137 42 3.1774 -0.0286 12.6227 5.2924 0.0000 4.9578
138 42 4.6606 1.5663 14.1585 5.6373 0.0000 4.8438
139 42 3.1621 -0.0356 15.6997 5.2797 0.0000 4.9761
140 42 4.7378 1.5917 17.3169 5.2899 0.0000 5.8831
141 42 3.1242 0.0005 18.8592 4.9593 0.0000 5.8004
142 42 4.6791 1.5692 20.4563 4.0387 0.0000 4.9255
143 42 3.1602 -0.0301 22.0237 4.8424 0.0000 6.2432
144 42 4.7750 1.6216 23.5856 4.7704 0.0000 5.7615
145 42 3.1627 3.1249 -0.0330 3.9594 0.0000 5.2251
146 42 4.7106 4.7113 1.5255 4.1727 0.0000 5.6615
147 42 3.2077 3.2293 3.1667 4.3735 0.0000 4.8404
148 42 4.7344 4.7501 4.7922 4.5522 0.0000 5.2161
149 42 3.1298 3.1344 6.2474 4.2071 0.0000 5.3076
150 42 4.7182 4.7308 7.8202 4.8025 0.0000 5.3673
151 42 3.1023 3.1335 9.4621 5.7832 0.0000 6.2474
152 42 4.7200 4.7107 10.9880 4.8080 0.0000 6.3325
153 42 3.1273 3.1419 12.6085 4.0477 0.0000 5.6843
154 42 4.6956 4.7760 14.1930 4.0152 0.0000 5.9136
155 42 3.1968 3.1103 15.8181 5.3975 0.0000 4.9834
156 42 4.7245 4.6700 17.3235 4.7840 0.0000 4.8790
157 42 3.1666 3.0970 18.8841 5.3428 0.0000 6.0559
158 42 4.7215 4.7333 20.4311 4.1530 0.0000 6.1260
159 42 3.1254 3.1778 21.9787 5.2005 0.0000 5.5582
160 42 4.7193 4.7213 23.5948 5.7098 0.0000 6.1606
161 42 3.1115 6.3729 0.0162 4.4165 0.0000 5.9955
162 42 4.6613 7.8720 1.6187 4.4839 0.0000 5.8969
163 42 3.1905 6.2853 3.1686 4.3678 0.0000 6.0184
164 42 4.6971 7.8456 4.6880 5.5053 0.0000 5.2949
165 42 3.2067 6.3250 6.2557 4.5805 0.0000 6.3612
166 42 4.6937 7.8780 7.8563 4.4282 0.0000 5.8398
167 42 3.0897 6.3156 9.4659 4.8125 0.0000 6.0738
168 42 4.7610 7.8432 11.0247 4.5973 0.0000 5.9146
169 42 3.1606 6.3433 12.5437 4.0929 0.0000 5.6828
170 42 4.6837 7.9116 14.2072 5.0965 0.0000 5.2592
171 42 3.1443 6.2835 15.7235 4.7810 0.0000 5.8981
172 42 4.7179 7.8173 17.2768 4.9102 0.0000 4.8232
173 42 3.2030 6.2721 18.8661 5.7728 0.0000 6.0629
174 42 4.7495 7.8222 20.4536 5.7277 0.0000 4.9800
175 42 3.0892 6.3320 21.9770 4.1774 0.0000 5.9108
176 42 4.7225 7.8758 23.6049 5.3744 0.0000 5.9156
177 42 3.1679 9.4429 -0.0385 4.8408 0.0000 5.6857
178 42 4.6475 11.0119 1.5739 4.5733 0.0000 5.1921
179 42 3.1604 9.4125 3.1333 4.1049 0.0000 5.4353
180 42 4.7724 11.0042 4.7290 5.0582 0.0000 5.2065
181 42 3.1253 9.4925 6.3360 4.3330 0.0000 5.5317
182 42 4.7489 10.9997 7.8791 4.7351 0.0000 5.3749
183 42 3.1266 9.4509 9.4239 5.6245 0.0000 5.9666
184 42 4.7397 11.0674 11.0296 4.1656 0.0000 5.6153
185 42 3.1181 9.4436 12.5735 4.2470 0.0000 6.0756
186 42 4.7485 10.9635 14.1773 4.7124 0.0000 5.7291
187 42 3.1390 9.4981 15.6959 4.4402 0.0000 5.6054
188 42 4.7763 11.0140 17.3434 4.3803 0.0000 5.0002
189 42 3.1308 9.4531 18.8822 4.2446 0.0000 5.1860
190 42 4.7488 11.0004 20.4999 3.8887 0.0000 4.7976
191 42 3.1877 9.4239 22.0275 4.3918 0.0000 6.4280
192 42 4.7098 11.0576 23.5976 4.1570 0.0000 5.9568
193 42 3.1503 12.6075 0.0043 5.7159 0.0000 6.1571
194 42 4.6892 14.1845 1.5724 4.1833 0.0000 4.8180
195 42 3.1272 12.5707 3.1529 5.4604 0.0000 4.8221
196 42 4.7052 14.1692 4.7190 4.9859 0.0000 5.0312
197 42 3.1838 12.5976 6.3053 4.3977 0.0000 5.2323
198 42 4.6930 14.1916 7.9142 4.6715 0.0000 4.9611
199 42 3.1696 12.5837 9.4645 3.8961 0.0000 6.0560
200 42 4.7073 14.1534 11.0358 5.3394 0.0000 5.6762
201 42 3.1628 12.5319 12.6524 5.6734 0.0000 5.0526
202 42 4.7026 14.1470 14.2343 4.5140 0.0000 6.3913
203 42 3.1511 12.5702 15.7256 4.5872 0.0000 6.0028
204 42 4.7033 14.1866 17.3120 5.1468 0.0000 5.5862
205 42 3.2297 12.6011 18.9118 5.7697 0.0000 6.2828
206 42 4.7015 14.1461 20.4045 3.9533 0.0000 5.4490
207 42 3.0984 12.5626 22.0161 5.0111 0.0000 5.1752
208 42 4.6958 14.2006 23.5600 5.2629 0.0000 5.1108
209 42 3.1920 15.7731 0.0231 4.0111 0.0000 5.6432
210 42 4.7514 17.3574 1.5352 5.7482 0.0000 5.7109
211 42 3.1503 15.7692 3.1515 5.4076 0.0000 6.2861
212 42 4.7303 17.2956 4.7148 5.0274 0.0000 6.1414
213 42 3.1393 15.7799 6.2926 5.0576 0.0000 6.4282
214 42 4.7420 17.2781 7.8951 5.6857 0.0000 5.4570
215 42 3.0913 15.7029 9.4222 5.4579 0.0000 4.8156
216 42 4.6380 17.2930 11.0211 4.3378 0.0000 5.9301
217 42 3.1843 15.6874 12.5994 5.0421 0.0000 4.8394
218 42 4.7161 17.3008 14.1337 5.3500 0.0000 5.6204
219 42 3.1464 15.7628 15.7339 4.5593 0.0000 5.9874
220 42 4.7062 17.3282 17.3265 4.7765 0.0000 5.1914
221 42 3.1855 15.7621 18.8793 4.3972 0.0000 5.0516
222 42 4.7093 17.2728 20.4218 5.3886 0.0000 5.5962
223 42 3.1124 15.7209 21.9893 4.2203 0.0000 5.1279
224 42 4.7397 17.2281 23.6095 4.8940 0.0000 5.5586
225 42 3.1410 18.8391 0.0008 5.5996 0.0000 5.6308
226 42 4.7591 20.4410 1.6125 5.5846 0.0000 5.1818
227 42 3.1186 18.8680 3.1624 5.3573 0.0000 5.6677
228 42 4.7278 20.4517 4.7101 5.3397 0.0000 5.7561
229 42 3.0819 18.8597 6.2644 4.9377 0.0000 5.9468
230 42 4.7359 20.4858 7.8956 4.9721 0.0000 5.4242
231 42 3.1146 18.8436 9.4900 5.1007 0.0000 4.8002
232 42 4.6995 20.4162 10.9761 5.7239 0.0000 5.0660
233 42 3.1393 18.8537 12.5617 3.8853 0.0000 5.2289
234 42 4.6867 20.4587 14.1510 4.4704 0.0000 5.8126
235 42 3.1281 18.8771 15.7614 3.9623 0.0000 5.9005
236 42 4.7632 20.4451 17.3402 5.0353 0.0000 5.5473
237 42 3.1770 18.8499 18.8240 4.0853 0.0000 4.9349
238 42 4.6562 20.4525 20.4705 5.3632 0.0000 4.8265
239 42 3.1241 18.8705 22.0653 5.3002 0.0000 5.2820
240 42 4.7572 20.4655 23.6358 4.4440 0.0000 6.1019
241 42 3.1634 21.9918 0.0035 4.0104 0.0000 4.8870
242 42 4.6991 23.6171 1.5761 5.7139 0.0000 5.0541
243 42 3.0922 22.0016 3.1568 5.6002 0.0000 5.8251
244 42 4.7613 23.5633 4.6946 4.5071 0.0000 5.4460
245 42 3.0927 22.0177 6.3042 4.2491 0.0000 5.2641
246 42 4.7081 23.6020 7.9047 4.5228 0.0000 6.3523
247 42 3.1656 21.9935 9.4284 4.1038 0.0000 5.7064
248 42 4.7644 23.6025 11.0271 4.0029 0.0000 5.5095
249 42 3.0921 21.9868 12.6290 4.9940 0.0000 4.8613
250 42 4.7060 23.6040 14.2026 4.8833 0.0000 5.1442
251 42 3.1857 22.0513 15.7438 4.6641 0.0000 6.3560
252 42 4.7301 23.6315 17.3466 4.4455 0.0000 5.0317
253 42 3.1379 22.0519 18.8757 4.0741 0.0000 5.0046
254 42 4.7654 23.5201 20.4518 4.4038 0.0000 5.7839
255 42 3.2082 21.9996 22.0627 4.2816 0.0000 4.9943
256 42 4.7267 23.6209 23.6047 3.9875 0.0000 5.8074
257 42 6.2583 0.0287 0.0324 4.6282 0.0000 6.3378
258 42 7.8819 1.5637 1.5810 4.5911 0.0000 5.1186
259 42 6.2995 -0.0471 3.1858 4.6841 0.0000 5.1745
260 42 7.8909 1.5353 4.6730 3.9884 0.0000 5.6528
261 42 6.2800 0.0018 6.3211 5.3786 0.0000 5.7620
262 42 7.8811 1.6048 7.8493 5.6265 0.0000 5.5896
263 42 6.2745 0.0394 9.4860 4.1222 0.0000 5.5416
264 42 7.8642 1.5123 11.0392 4.3394 0.0000 5.7651
265 42 6.2984 0.0190 12.5981 4.8193 0.0000 5.8458
266 42 7.9277 1.6061 14.1681 4.8807 0.0000 6.1266
267 42 6.2993 0.0218 15.7346 3.9698 0.0000 6.1715
268 42 7.8612 1.6363 17.3277 5.2913 0.0000 5.5070
269 42 6.2792 0.0191 18.9270 5.0652 0.0000 5.7170
270 42 7.8796 1.5724 20.4005 4.4078 0.0000 5.0103
271 42 6.3408 -0.0248 22.0309 4.9715 0.0000 5.6399
272 42 7.8043 1.6053 23.5666 4.0348 0.0000 5.3466
273 42 6.3442 3.1054 0.0307 3.9379 0.0000 5.5783
274 42 7.8097 4.6792 1.5569 5.1963 0.0000 5.4653
275 42 6.3063 3.1648 3.1494 5.4569 0.0000 6.3846
276 42 7.8823 4.6893 4.7598 5.0652 0.0000 4.9207
277 42 6.2638 3.1482 6.3612 4.4005 0.0000 5.4404
278 42 7.8760 4.7070 7.9147 4.9926 0.0000 4.7905
279 42 6.1988 3.1825 9.4565 5.7198 0.0000 5.8322
280 42 7.9231 4.7107 11.0001 4.6361 0.0000 5.0573
281 42 6.2833 3.1320 12.5918 4.5415 0.0000 4.9308
282 42 7.8617 4.6790 14.1347 3.9296 0.0000 4.9225
283 42 6.3187 3.1826 15.7463 5.1846 0.0000 5.2048
284 42 7.8551 4.7217 17.3201 4.0027 0.0000 4.9631
285 42 6.2872 3.1178 18.8607 3.9159 0.0000 5.1411
286 42 7.8329 4.7591 20.4395 5.6014 0.0000 5.4692
287 42 6.2711 3.0872 21.9757 5.3878 0.0000 5.2804
288 42 7.8876 4.6882 23.6015 5.5932 0.0000 5.2496
289 42 6.3486 6.3282 0.0135 5.1649 0.0000 5.1299
290 42 7.8560 7.8557 1.5407 4.6418 0.0000 5.9312
291 42 6.3193 6.3055 3.1462 3.9955 0.0000 4.9589
292 42 7.9092 7.8776 4.7140 4.0031 0.0000 5.1178
293 42 6.2934 6.3070 6.3170 5.7388 0.0000 6.1644
294 42 7.8132 7.8675 7.8593 4.3092 0.0000 5.1158
295 42 6.2923 6.3171 9.4438 4.6996 0.0000 5.5724
296 42 7.8840 7.8354 10.9849 4.5701 0.0000 6.0343
297 42 6.2068 6.2579 12.6001 3.9120 0.0000 6.2066
298 42 7.9046 7.8339 14.1972 4.8473 0.0000 4.8865
299 42 6.2948 6.3193 15.7239 4.6273 0.0000 6.3940
300 42 7.8281 7.9407 17.3065 4.3672 0.0000 5.9909
301 42 6.2659 6.2982 18.9108 5.5587 0.0000 6.1557
302 42 7.8842 7.8561 20.4526 4.8808 0.0000 5.3446
303 42 6.3261 6.3248 22.0440 4.5951 0.0000 5.8641
304 42 7.8722 7.8274 23.5938 3.9863 0.0000 6.2233
305 42 6.2929 9.4351 0.0267 3.9759 0.0000 5.1335
306 42 7.8484 11.0354 1.5362 5.0474 0.0000 5.7017
307 42 6.2958 9.4413 3.1741 4.2878 0.0000 6.3195
308 42 7.8568 11.0561 4.6747 4.8652 0.0000 6.0662
309 42 6.2828 9.3943 6.2619 4.6080 0.0000 6.4443
310 42 7.8806 11.0026 7.8546 4.7430 0.0000 6.1238
311 42 6.3086 9.4078 9.4730 5.1543 0.0000 5.2392
312 42 7.8292 11.0142 11.0663 4.7712 0.0000 6.2969
313 42 6.3044 9.4530 12.6045 5.5127 0.0000 5.9840
314 42 7.8902 11.0097 14.0835 5.1699 0.0000 5.6027
315 42 6.3041 9.4063 15.7235 4.2906 0.0000 5.9738
316 42 7.9131 11.0181 17.3152 3.9999 0.0000 5.2006
317 42 6.3089 9.4654 18.8388 4.3936 0.0000 5.2766
318 42 7.8450 10.9921 20.4545 4.3861 0.0000 5.8472
319 42 6.3373 9.4681 22.0282 4.9215 0.0000 5.8056
320 42 7.9486 11.0077 23.5519 4.7043 0.0000 5.9122
321 42 6.3475 12.5637 -0.0158 4.6867 0.0000 6.2224
322 42 7.8547 14.1665 1.6113 4.6273 0.0000 6.1462
323 42 6.2651 12.5472 3.1326 4.7752 0.0000 5.9472
324 42 7.8470 14.1688 4.6956 5.3960 0.0000 5.7262
325 42 6.2942 12.6045 6.3051 4.8411 0.0000 6.1056
326 42 7.8694 14.1513 7.7797 4.3824 0.0000 5.5666
327 42 6.3202 12.5996 9.4525 4.7502 0.0000 6.1878
328 42 7.8810 14.1297 11.0024 5.0709 0.0000 6.1262
329 42 6.2693 12.6121 12.6296 4.3765 0.0000 4.8335
330 42 7.8860 14.1913 14.1905 4.0950 0.0000 5.1512
331 42 6.2958 12.5978 15.7383 5.0427 0.0000 5.0069
332 42 7.8881 14.1362 17.2470 5.5512 0.0000 5.9949
333 42 6.2930 12.6076 18.8336 5.5294 0.0000 4.8720
334 42 7.8480 14.1863 20.4834 4.0441 0.0000 5.6234
335 42 6.2488 12.6489 21.9978 5.0707 0.0000 6.1207
336 42 7.9393 14.2085 23.6375 5.3526 0.0000 6.0831
337 42 6.2099 15.6681 0.0426 5.5191 0.0000 5.5507
338 42 7.8330 17.3259 1.5777 4.9083 0.0000 5.6049
339 42 6.3040 15.7414 3.1795 4.5945 0.0000 5.5225
340 42 7.8810 17.3968 4.7392 4.1249 0.0000 4.8055
341 42 6.2429 15.7211 6.2995 5.6781 0.0000 5.2255
342 42 7.7753 17.3246 7.8591 5.6509 0.0000 6.0426
343 42 6.2867 15.6817 9.4097 3.9744 0.0000 6.2969
344 42 7.8557 17.3058 10.9997 4.8216 0.0000 5.4789
345 42 6.2528 15.7314 12.6053 5.0372 0.0000 5.5643
346 42 7.8595 17.3211 14.1707 5.5333 0.0000 6.0992
347 42 6.3453 15.7004 15.7279 5.3240 0.0000 5.5899
348 42 7.8354 17.3309 17.3322 4.0522 0.0000 5.6544
349 42 6.3114 15.7582 18.8848 4.2614 0.0000 5.3518
350 42 7.8325 17.3123 20.4358 5.1973 0.0000 6.0488
351 42 6.3048 15.7649 22.0362 3.8723 0.0000 5.1277
352 42 7.8194 17.3052 23.5839 4.7107 0.0000 5.1912
353 42 6.2624 18.8926 0.0093 4.9178 0.0000 5.5087
354 42 7.8936 20.4740 1.5665 4.3272 0.0000 5.8889
355 42 6.2890 18.9194 3.1277 5.5057 0.0000 5.7700
356 42 7.8512 20.4662 4.6523 5.1353 0.0000 5.9631
357 42 6.2686 18.8801 6.3233 4.9069 0.0000 5.0003
358 42 7.9007 20.4650 7.8106 4.0157 0.0000 6.1599
359 42 6.2973 18.9169 9.4314 5.7286 0.0000 5.4625
360 42 7.8724 20.4565 11.0084 5.7711 0.0000 6.1019
361 42 6.2876 18.8932 12.6253 3.8891 0.0000 5.3665
362 42 7.8737 20.4985 14.1886 4.8425 0.0000 5.4989
363 42 6.2771 18.9165 15.7584 4.9711 0.0000 5.9373
364 42 7.8864 20.4468 17.2489 5.2591 0.0000 6.1843
365 42 6.2766 18.9109 18.9084 3.9403 0.0000 5.5417
366 42 7.8673 20.4540 20.4589 3.9609 0.0000 5.3390
367 42 6.3071 18.8986 21.9956 4.8164 0.0000 6.3681
368 42 7.9129 20.4230 23.6382 5.2327 0.0000 4.9583
369 42 6.3396 22.0149 -0.0171 4.6563 0.0000 6.4458
370 42 7.8753 23.5956 1.5595 4.7234 0.0000 4.8446
371 42 6.3027 22.0813 3.1703 4.3517 0.0000 6.4422
372 42 7.8477 23.5606 4.7733 4.9088 0.0000 6.1856
373 42 6.2613 22.0711 6.2470 5.7074 0.0000 6.3865
374 42 7.8150 23.6076 7.8959 5.5745 0.0000 5.5764
375 42 6.3023 21.9970 9.4297 5.1542 0.0000 6.3074
376 42 7.8714 23.5800 11.0041 5.1969 0.0000 5.9225
377 42 6.2704 21.9795 12.5700 4.9419 0.0000 6.3686
378 42 7.9086 23.5608 14.2407 3.9625 0.0000 6.3921
379 42 6.2893 22.0304 15.7488 5.7715 0.0000 4.9307
380 42 7.8518 23.6279 17.2718 5.3886 0.0000 5.4385
381 42 6.2757 22.0293 18.8294 4.0395 0.0000 5.4798
382 42 7.8782 23.6635 20.4400 4.5975 0.0000 5.3999
383 42 6.2886 22.0601 22.0228 3.9139 0.0000 5.9200
384 42 7.8680 23.6416 23.6014 4.4860 0.0000 5.8158
385 42 9.4005 -0.0152 0.0229 4.4160 0.0000 6.2136
386 42 11.0059 1.5461 1.5347 5.4069 0.0000 5.1289
387 42 9.4176 -0.0147 3.1236 5.3669 0.0000 5.5336
388 42 11.0443 1.5623 4.7114 5.7552 0.0000 6.4010
389 42 9.4075 0.0539 6.2926 5.0405 0.0000 5.5516
390 42 10.9956 1.5749 7.8680 3.9377 0.0000 6.0384
391 42 9.4698 -0.0205 9.4566 5.2331 0.0000 6.2029
392 42 11.0313 1.5900 11.0149 5.4206 0.0000 5.8425
393 42 9.4861 0.0220 12.5908 5.5384 0.0000 6.0713
394 42 10.9822 1.6015 14.1894 4.9793 0.0000 5.8483
395 42 9.4278 -0.0170 15.7768 5.0275 0.0000 5.0125
396 42 10.9774 1.6036 17.3229 4.0546 0.0000 6.2392
397 42 9.4496 0.0129 18.8526 4.8421 0.0000 5.9079
398 42 11.0616 1.5843 20.4308 5.2480 0.0000 5.5529
399 42 9.4087 0.0035 21.9810 3.8970 0.0000 5.7973
400 42 11.0071 1.5797 23.6158 4.5552 0.0000 5.6334
401 42 9.4279 3.2199 -0.0149 5.2708 0.0000 5.2242
402 42 11.0245 4.7880 1.5938 3.8569 0.0000 5.0854
403 42 9.4490 3.1510 3.0751 4.0596 0.0000 6.3044
404 42 10.9875 4.6880 4.7061 5.2883 0.0000 5.3505
405 42 9.4375 3.1096 6.3038 5.7657 0.0000 6.3893
406 42 10.9840 4.7463 7.9129 5.5082 0.0000 4.9420
407 42 9.3797 3.1411 9.4474 4.8822 0.0000 5.6600
408 42 10.9201 4.7050 11.0079 5.1357 0.0000 5.2613
409 42 9.4567 3.1034 12.6722 4.3471 0.0000 5.4198
410 42 10.9993 4.6948 14.1596 4.5393 0.0000 6.2401
411 42 9.4484 3.1432 15.7366 4.0470 0.0000 5.5947
412 42 10.9661 4.7100 17.3318 5.7333 0.0000 4.8117
413 42 9.4041 3.1245 18.8314 5.6494 0.0000 5.4988
414 42 10.9852 4.7071 20.4535 4.4688 0.0000 4.9432
415 42 9.4362 3.1608 21.9595 4.8727 0.0000 6.3975
416 42 11.0224 4.6913 23.5940 5.2471 0.0000 4.8219
417 42 9.4413 6.3278 -0.0636 4.9791 0.0000 5.6337
418 42 11.0806 7.8308 1.5469 5.7304 0.0000 5.2654
419 42 9.4450 6.2967 3.2120 5.3743 0.0000 6.1628
420 42 11.0727 7.8636 4.7489 4.1021 0.0000 4.9239
421 42 9.4439 6.3219 6.3013 4.1708 0.0000 5.3123
422 42 11.0431 7.8748 7.8835 5.2183 0.0000 5.9994
423 42 9.4622 6.3019 9.4009 4.3246 0.0000 5.9923
424 42 11.0158 7.8612 11.0299 4.8594 0.0000 4.8557
425 42 9.4517 6.2783 12.5824 4.2450 0.0000 4.9595
426 42 11.0457 7.8866 14.1631 5.4817 0.0000 5.0853
427 42 9.4064 6.3371 15.7434 4.6950 0.0000 6.0870
428 42 10.9864 7.8256 17.2762 5.3335 0.0000 4.7846
429 42 9.4228 6.2449 18.8781 5.4053 0.0000 6.2671
430 42 10.9943 7.8736 20.4453 5.7646 0.0000 6.1559
431 42 9.4697 6.2763 22.0068 5.4128 0.0000 5.3854
432 42 11.0174 7.8302 23.6133 4.3254 0.0000 5.1209
433 42 9.4670 9.4488 0.0454 4.5887 0.0000 5.5031
434 42 10.9692 11.0264 1.5907 5.2992 0.0000 6.2914
435 42 9.4235 9.4620 3.1622 4.8760 0.0000 5.9526
436 42 11.0576 11.0313 4.7230 5.5655 0.0000 4.9884
437 42 9.4249 9.4241 6.2879 4.8709 0.0000 5.8200
438 42 11.0391 10.9567 7.8681 4.8507 0.0000 5.8962
439 42 9.4775 9.4353 9.4176 5.4329 0.0000 6.3607
440 42 10.9839 11.0108 10.9915 4.9526 0.0000 6.1101
441 42 9.4396 9.4110 12.5875 4.9718 0.0000 5.3391
442 42 11.0575 11.0591 14.1395 5.2416 0.0000 6.2326
443 42 9.4063 9.4386 15.7672 4.7226 0.0000 6.1820
444 42 11.0331 11.0387 17.2967 5.6425 0.0000 5.3121
445 42 9.4132 9.4664 18.8855 3.9135 0.0000 5.9006
446 42 11.0151 10.9881 20.4110 5.7192 0.0000 6.4164
447 42 9.4568 9.4541 22.0304 4.9314 0.0000 5.2252
448 42 11.0086 10.9854 23.6656 4.4342 0.0000 5.2163
449 42 9.4498 12.5815 0.0130 4.6186 0.0000 5.8983
450 42 11.0624 14.1530 1.5412 4.7330 0.0000 5.4843
451 42 9.4590 12.6120 3.1702 4.7253 0.0000 5.7506
452 42 10.9942 14.1596 4.6820 4.3127 0.0000 5.3629
453 42 9.3908 12.5967 6.2923 5.1941 0.0000 6.1100
454 42 11.0590 14.1576 7.8523 4.5757 0.0000 6.4237
455 42 9.4428 12.5793 9.4266 4.5163 0.0000 6.1890
456 42 11.0533 14.1471 10.9872 4.2737 0.0000 5.2057
457 42 9.4485 12.6045 12.5915 4.5805 0.0000 5.5809
458 42 10.9855 14.1549 14.1790 4.5215 0.0000 6.3911
459 42 9.4125 12.6103 15.8199 5.0133 0.0000 5.4721
460 42 11.0215 14.1781 17.2508 4.7041 0.0000 5.8253
461 42 9.4423 12.5547 18.8981 4.6850 0.0000 5.9396
462 42 11.0145 14.1243 20.4278 5.7499 0.0000 5.0501
463 42 9.4403 12.5798 22.0137 4.7954 0.0000 6.3200
464 42 11.0012 14.1227 23.5902 5.0528 0.0000 6.4278
465 42 9.4457 15.6816 -0.0522 5.0758 0.0000 6.2748
466 42 11.0660 17.2742 1.6034 5.2908 0.0000 6.4014
467 42 9.4380 15.7703 3.1413 4.3336 0.0000 6.2890
468 42 10.9755 17.2783 4.7148 4.0358 0.0000 5.2395
469 42 9.4976 15.7587 6.3332 5.5000 0.0000 5.0248
470 42 11.0184 17.3145 7.8585 4.0269 0.0000 4.9527
471 42 9.4346 15.7555 9.4713 5.2227 0.0000 5.5080
472 42 11.0115 17.3242 10.9820 5.0138 0.0000 5.9679
473 42 9.3924 15.7776 12.5572 5.0991 0.0000 4.9137
474 42 10.9898 17.2418 14.1560 4.0288 0.0000 5.9403
475 42 9.4654 15.7763 15.7294 5.3754 0.0000 6.1838
476 42 11.0266 17.3543 17.3539 5.1053 0.0000 4.7747
477 42 9.4127 15.7287 18.8889 4.0805 0.0000 5.8858
478 42 11.0163 17.3094 20.4458 4.7145 0.0000 5.2724
479 42 9.4809 15.7250 22.0473 4.8330 0.0000 5.7689
480 42 11.0231 17.2852 23.6426 4.2680 0.0000 5.2468
481 42 9.3952 18.8935 -0.0250 4.3493 0.0000 5.5835
482 42 10.9890 20.4408 1.6102 3.8888 0.0000 5.2114
483 42 9.4685 18.9001 3.1319 5.3502 0.0000 4.8993
484 42 10.9574 20.4005 4.6871 5.2907 0.0000 5.1403
485 42 9.4541 18.9174 6.2922 5.5027 0.0000 6.1212
486 42 11.0025 20.4594 7.8667 5.4251 0.0000 5.6747
487 42 9.4323 18.8848 9.4853 4.7482 0.0000 6.0391
488 42 11.0352 20.4623 10.9560 3.9284 0.0000 5.2816
489 42 9.3768 18.9054 12.5679 5.4658 0.0000 5.1324
490 42 11.0196 20.4552 14.1808 5.0316 0.0000 5.1700
491 42 9.4971 18.8531 15.7087 4.5169 0.0000 6.3575
492 42 10.9925 20.5085 17.3341 4.5276 0.0000 5.0511
493 42 9.3493 18.8424 18.8831 4.0228 0.0000 5.1370
494 42 10.9771 20.3833 20.4812 4.4168 0.0000 5.2163
495 42 9.4494 18.8888 22.0256 4.3789 0.0000 6.4135
496 42 10.9972 20.4898 23.6372 4.8090 0.0000 5.3741
497 42 9.3928 21.9697 0.0272 5.2385 0.0000 4.8752
498 42 10.9580 23.6412 1.6086 5.5087 0.0000 4.9327
499 42 9.4569 22.0025 3.1200 4.8816 0.0000 5.9330
500 42 11.0805 23.5875 4.7259 5.0972 0.0000 5.2158
501 42 9.4571 22.0242 6.2713 4.6944 0.0000 6.2890
502 42 10.9589 23.6035 7.8452 5.7509 0.0000 5.6783
503 42 9.4701 22.0063 9.3785 4.1803 0.0000 6.3317
504 42 10.9851 23.5581 10.9858 3.9695 0.0000 4.8288
505 42 9.4824 22.0312 12.5971 5.4842 0.0000 5.6576
506 42 11.0108 23.5786 14.1806 5.7074 0.0000 6.2235
507 42 9.4065 22.0377 15.7690 4.7934 0.0000 6.1374
508 42 11.0277 23.5992 17.2914 4.8222 0.0000 4.8866
509 42 9.4337 22.0184 18.8603 4.9621 0.0000 5.8306
510 42 11.0600 23.6800 20.3738 5.6499 0.0000 5.1851
511 42 9.4760 21.9979 22.0801 4.0850 0.0000 5.9234
512 42 10.9481 23.6487 23.6327 4.2217 0.0000 5.4492
513 42 12.5977 0.0115 -0.0419 4.8826 0.0000 5.1004
514 42 14.1809 1.5462 1.5916 5.2860 0.0000 4.9553
515 42 12.6207 0.0236 3.2191 4.4077 0.0000 4.8878
516 42 14.1784 1.5490 4.7252 5.3209 0.0000 6.1672
517 42 12.5716 -0.0273 6.2923 4.1576 0.0000 6.1543
518 42 14.1415 1.5997 7.8618 5.0984 0.0000 5.9060
519 42 12.6177 -0.0308 9.4762 5.0008 0.0000 6.2672
520 42 14.1656 1.5984 11.0025 4.4645 0.0000 6.3227
521 42 12.6531 -0.0345 12.5869 5.5545 0.0000 5.9932
522 42 14.1295 1.5694 14.1911 5.7491 0.0000 5.8150
523 42 12.6104 0.0392 15.7479 4.0804 0.0000 5.0123
524 42 14.1656 1.6084 17.3178 5.0847 0.0000 5.4796
525 42 12.5994 -0.0122 18.8665 5.3128 0.0000 5.5137
526 42 14.1537 1.5326 20.4422 4.2814 0.0000 5.2738
527 42 12.5932 -0.0055 22.0374 5.2050 0.0000 6.4561
528 42 14.1072 1.5777 23.6325 4.2161 0.0000 5.3345
529 42 12.5340 3.1066 -0.0031 5.3533 0.0000 5.4619
530 42 14.1530 4.6905 1.5658 4.6680 0.0000 4.9773
531 42 12.5794 3.1130 3.1594 5.7832 0.0000 5.7379
532 42 14.1513 4.7277 4.7253 5.7449 0.0000 5.4298
533 42 12.6304 3.1470 6.2643 4.1288 0.0000 6.2691
534 42 14.2112 4.7097 7.8299 4.3208 0.0000 5.8975
535 42 12.6379 3.1488 9.4917 4.0505 0.0000 5.3234
536 42 14.1650 4.7494 10.9852 4.1450 0.0000 6.4305
537 42 12.5688 3.1634 12.6255 4.5337 0.0000 6.4163
538 42 14.1348 4.6749 14.1565 5.7609 0.0000 5.0975
539 42 12.6505 3.0916 15.7385 5.6562 0.0000 6.1402
540 42 14.1653 4.6900 17.3041 5.0119 0.0000 5.7199
541 42 12.6030 3.1527 18.8780 5.4462 0.0000 5.4996
542 42 14.1736 4.6934 20.4841 4.6381 0.0000 4.9080
543 42 12.5933 3.1398 22.0223 5.5794 0.0000 5.2539
544 42 14.1854 4.7222 23.6731 4.6670 0.0000 5.1321
545 42 12.5424 6.3155 0.0082 5.4002 0.0000 6.0013
546 42 14.1396 7.8655 1.5586 4.7068 0.0000 5.0492
547 42 12.6510 6.2713 3.1801 4.6112 0.0000 6.1312
548 42 14.1354 7.8675 4.7537 4.8810 0.0000 6.2337
549 42 12.6000 6.3110 6.3056 4.2727 0.0000 6.1065
550 42 14.1089 7.8466 7.8680 4.2908 0.0000 4.8306
551 42 12.6215 6.2774 9.4279 5.0039 0.0000 4.8166
552 42 14.1636 7.9156 11.0488 4.4237 0.0000 6.2294
553 42 12.5676 6.2978 12.6204 4.1656 0.0000 5.3016
554 42 14.1472 7.8509 14.2073 4.5870 0.0000 6.2212
555 42 12.5748 6.3075 15.7181 4.2087 0.0000 6.3471
556 42 14.1209 7.8824 17.3272 5.6185 0.0000 5.3531
557 42 12.6081 6.2547 18.8558 3.9528 0.0000 5.6078
558 42 14.0945 7.8555 20.3952 4.1703 0.0000 5.1532
559 42 12.6240 6.3129 22.0280 4.6297 0.0000 5.2173
560 42 14.1545 7.8900 23.6207 4.7557 0.0000 5.0255
561 42 12.6152 9.4666 0.0534 4.2910 0.0000 5.2508
562 42 14.1987 11.0071 1.5787 4.5472 0.0000 5.0959
563 42 12.5760 9.4721 3.1765 4.0991 0.0000 5.2259
564 42 14.1404 11.0180 4.6901 5.5280 0.0000 5.4646
565 42 12.6175 9.4167 6.2933 4.4967 0.0000 5.0820
566 42 14.1284 11.0457 7.8867 3.9606 0.0000 5.3783
567 42 12.6144 9.4824 9.4071 5.7159 0.0000 4.8978
568 42 14.1846 11.0670 11.0429 4.5674 0.0000 4.9188
569 42 12.5667 9.4062 12.5781 4.3625 0.0000 5.9970
570 42 14.1915 11.0385 14.1020 5.1981 0.0000 5.1428
571 42 12.6175 9.4124 15.7396 5.4289 0.0000 5.0601
572 42 14.0958 10.9759 17.3379 4.0559 0.0000 5.2484
573 42 12.6431 9.4489 18.8908 3.9566 0.0000 5.9551
574 42 14.1450 10.9849 20.4427 4.5496 0.0000 5.4577
575 42 12.5659 9.3939 22.0785 5.4534 0.0000 5.2007
576 42 14.1385 11.0365 23.5752 5.0344 0.0000 5.1799
577 42 12.6086 12.5374 0.0059 4.1391 0.0000 5.8808
578 42 14.2033 14.1473 1.5768 5.2560 0.0000 5.5626
579 42 12.6403 12.6389 3.1488 4.0168 0.0000 6.2670
580 42 14.2158 14.1722 4.6719 4.6458 0.0000 5.2104
581 42 12.5217 12.5764 6.3212 5.4254 0.0000 6.1484
582 42 14.1872 14.1992 7.8582 5.5777 0.0000 5.1933
583 42 12.5869 12.5491 9.4808 5.5622 0.0000 6.0380
584 42 14.1051 14.1819 11.0116 5.7180 0.0000 5.2443
585 42 12.6020 12.5840 12.6086 5.4671 0.0000 5.8658
586 42 14.1800 14.1862 14.1404 4.1391 0.0000 5.6234
587 42 12.5979 12.5758 15.7053 5.6401 0.0000 5.1176
588 42 14.1472 14.1607 17.3115 4.7314 0.0000 4.9682
589 42 12.6198 12.5756 18.8788 5.4606 0.0000 5.4684
590 42 14.1217 14.1334 20.4566 5.2835 0.0000 5.9211
591 42 12.6223 12.5692 22.0074 4.9088 0.0000 5.8147
592 42 14.1609 14.1471 23.5803 4.1086 0.0000 5.2734
593 42 12.6029 15.7150 0.0120 4.7432 0.0000 6.2899