ITEM: TIMESTEP
0
ITEM: NUMBER OF ATOMS
100
ITEM: BOX BOUNDS pp pp pp
0.0 20
0.0 20
0.0 20
ITEM: ATOMS id type xu yu zu
1 1 0.500000 1.300000 2.100000
2 1 7.630000 12.670000 5.810000
3 1 14.760000 4.040000 9.520000
4 1 1.890000 15.410000 13.230000
5 1 9.020000 6.780000 16.940000
6 1 16.150000 18.150000 0.650000
7 1 3.280000 9.520000 4.360000
8 1 10.410000 0.890000 8.070000
9 1 17.540000 12.260000 11.780000
10 1 4.670000 3.630000 15.490000
11 1 11.800000 15.000000 19.200000
12 1 18.930000 6.370000 2.910000
13 1 6.060000 17.740000 6.620000
14 1 13.190000 9.110000 10.330000
15 1 0.320000 0.480000 14.040000
16 1 7.450000 11.850000 17.750000
17 1 14.580000 3.220000 1.460000
18 1 1.710000 14.590000 5.170000
19 1 8.840000 5.960000 8.880000
20 1 15.970000 17.330000 12.590000
21 1 3.100000 8.700000 16.300000
22 1 10.230000 0.070000 0.010000
23 1 17.360000 11.440000 3.720000
24 1 4.490000 2.810000 7.430000
25 1 11.620000 14.180000 11.140000
26 1 18.750000 5.550000 14.850000
27 1 5.880000 16.920000 18.560000
28 1 13.010000 8.290000 2.270000
29 1 0.140000 19.660000 5.980000
30 1 7.270000 11.030000 9.690000
31 1 14.400000 2.400000 13.400000
32 1 1.530000 13.770000 17.110000
33 1 8.660000 5.140000 0.820000
34 1 15.790000 16.510000 4.530000
35 1 2.920000 7.880000 8.240000
36 1 10.050000 19.250000 11.950000
37 1 17.180000 10.620000 15.660000
38 1 4.310000 1.990000 19.370000
39 1 11.440000 13.360000 3.080000
40 1 18.570000 4.730000 6.790000
41 1 5.700000 16.100000 10.500000
42 1 12.830000 7.470000 14.210000
43 1 19.960000 18.840000 17.920000
44 1 7.090000 10.210000 1.630000
45 1 14.220000 1.580000 5.340000
46 1 1.350000 12.950000 9.050000
47 1 8.480000 4.320000 12.760000
48 1 15.610000 15.690000 16.470000
49 1 2.740000 7.060000 0.180000
50 1 9.870000 18.430000 3.890000
51 1 17.000000 9.800000 7.600000
52 1 4.130000 1.170000 11.310000
53 1 11.260000 12.540000 15.020000
54 1 18.390000 3.910000 18.730000
55 1 5.520000 15.280000 2.440000
56 1 12.650000 6.650000 6.150000
57 1 19.780000 18.020000 9.860000
58 1 6.910000 9.390000 13.570000
59 1 14.040000 0.760000 17.280000
60 1 1.170000 12.130000 0.990000
61 1 8.300000 3.500000 4.700000
62 1 15.430000 14.870000 8.410000
63 1 2.560000 6.240000 12.120000
64 1 9.690000 17.610000 15.830000
65 1 16.820000 8.980000 19.540000
66 1 3.950000 0.350000 3.250000
67 1 11.080000 11.720000 6.960000
68 1 18.210000 3.090000 10.670000
69 1 5.340000 14.460000 14.380000
70 1 12.470000 5.830000 18.090000
71 1 19.600000 17.200000 1.800000
72 1 6.730000 8.570000 5.510000
73 1 13.860000 19.940000 9.220000
74 1 0.990000 11.310000 12.930000
75 1 8.120000 2.680000 16.640000
76 1 15.250000 14.050000 0.350000
77 1 2.380000 5.420000 4.060000
78 1 9.510000 16.790000 7.770000
79 1 16.640000 8.160000 11.480000
80 1 3.770000 19.530000 15.190000
81 1 10.900000 10.900000 18.900000
82 1 18.030000 2.270000 2.610000
83 1 5.160000 13.640000 6.320000
84 1 12.290000 5.010000 10.030000
85 1 19.420000 16.380000 13.740000
86 1 6.550000 7.750000 17.450000
87 1 13.680000 19.120000 1.160000
88 1 0.810000 10.490000 4.870000
89 1 7.940000 1.860000 8.580000
90 1 15.070000 13.230000 12.290000
91 1 2.200000 4.600000 16.000000
92 1 9.330000 15.970000 19.710000
93 1 16.460000 7.340000 3.420000
94 1 3.590000 18.710000 7.130000
95 1 10.720000 10.080000 10.840000
96 1 17.850000 1.450000 14.550000
97 1 4.980000 12.820000 18.260000
98 1 12.110000 4.190000 1.970000
99 1 19.240000 15.560000 5.680000
100 1 6.370000 6.930000 9.390000
ITEM: TIMESTEP
100
ITEM: NUMBER OF ATOMS
100
ITEM: BOX BOUNDS pp pp pp
0.0 20
0.0 20
0.0 20
ITEM: ATOMS id type xu yu zu
1 1 0.531611 1.499953 2.411016
2 1 7.518994 12.500712 6.121016
3 1 14.930759 4.148730 9.831016
4 1 1.689641 15.381068 13.541016
5 1 9.214543 6.724019 17.251016
6 1 15.995637 18.280969 0.961016
7 1 3.366887 9.337158 4.671016
8 1 10.405910 1.092395 8.381016
9 1 17.460536 12.073812 12.091016
10 1 4.818946 3.767098 15.801016
11 1 11.607866 14.936242 19.511016
12 1 19.131360 6.349149 3.221016
13 1 5.884988 17.841743 6.931016
14 1 13.307724 8.945313 10.641016
15 1 0.280337 0.678513 14.351016
16 1 7.404561 11.652729 18.061016
17 1 14.702479 3.381182 1.771016
18 1 1.532094 14.493408 5.481016
19 1 9.041883 5.974967 9.191016
20 1 15.779808 17.399338 12.901016
21 1 3.244882 8.558614 16.611016
22 1 10.156003 0.258428 0.321016
23 1 17.350006 11.237810 4.031016
24 1 4.582185 2.990229 7.741016
25 1 11.461881 14.053591 11.451016
26 1 18.946093 5.600280 15.161016
27 1 5.680571 16.954766 18.871016
28 1 13.177513 8.176334 2.581016
29 1 0.033981 19.832455 6.291016
30 1 7.295763 10.829209 10.001016
31 1 14.459011 2.593645 13.711016
32 1 1.396609 13.617725 17.421016
33 1 8.844176 5.224022 1.131016
34 1 15.587565 16.509108 4.841016
35 1 3.104910 7.797605 8.551016
36 1 9.915272 19.401093 12.261016
37 1 17.240715 10.426883 15.971016
38 1 4.333992 2.191010 19.681016
39 1 11.335505 13.186617 3.391016
40 1 18.736505 4.845138 7.101016
41 1 5.500885 16.063478 10.811016
42 1 13.026529 7.421451 14.521016
43 1 19.800773 18.965010 18.231016
44 1 7.183770 10.030590 1.941016
45 1 14.208224 1.782094 5.651016
46 1 1.277667 12.760927 9.361016
47 1 8.623630 4.462657 13.071016
48 1 15.420427 15.618989 16.781016
49 1 2.942007 7.046813 0.491016
50 1 9.691249 18.525021 4.201016
51 1 17.123895 9.639904 7.911016
52 1 4.082824 1.366863 11.621016
53 1 11.222088 12.341145 15.331016
54 1 18.506267 4.075718 19.041016
55 1 5.345892 15.176719 2.751016
56 1 12.851168 6.672626 6.461016
57 1 19.587311 18.082062 10.171016
58 1 7.060149 9.254221 13.881016
59 1 13.958898 0.945481 17.591016
60 1 1.167695 11.927576 1.301016
61 1 8.385272 3.683601 5.011016
62 1 15.276798 14.737676 8.721016
63 1 2.754042 6.297693 12.431016
64 1 9.489394 17.637164 16.141016
65 1 16.991710 8.872780 19.851016
66 1 3.837506 0.518303 3.561016
67 1 11.113373 11.520333 7.271016
68 1 18.261611 3.285747 10.981016
69 1 5.212491 14.302768 14.691016
70 1 12.650851 5.920958 18.401016
71 1 19.397745 17.191418 2.111016
72 1 6.917907 8.494689 5.821016
73 1 13.719629 20.085865 9.531016
74 1 1.058008 11.119329 13.241016
75 1 8.136338 2.881776 16.951016
76 1 15.152168 13.872773 0.661016
77 1 2.542010 5.541381 4.371016
78 1 9.312416 16.745939 8.081016
79 1 16.838231 8.118952 11.791016
80 1 3.606139 19.648870 15.501016
81 1 11.000518 10.724282 19.211016
82 1 18.010555 2.471501 2.921016
83 1 5.094902 13.448316 6.631016
84 1 12.428107 5.158011 10.341016
85 1 19.233261 16.301838 14.051016
86 1 6.752362 7.744497 17.761016
87 1 13.497769 19.208161 1.471016
88 1 0.939888 10.334727 5.181016
89 1 7.885379 2.054929 8.891016
90 1 15.039670 13.029848 12.601016
91 1 2.309888 4.770016 16.311016
92 1 9.159942 15.860179 20.021016
93 1 16.660164 7.370252 3.731016
94 1 3.395093 18.764697 7.441016
95 1 10.875199 9.950023 11.151016
96 1 17.761910 1.632266 14.861016
97 1 4.985386 12.617635 18.571016
98 1 12.188235 4.376708 2.281016
99 1 19.091935 15.421951 5.991016
100 1 6.561710 6.995023 9.701016
ITEM: TIMESTEP
200
ITEM: NUMBER OF ATOMS
100
ITEM: BOX BOUNDS pp pp pp
0.0 20
0.0 20
0.0 20
ITEM: ATOMS id type xu yu zu
1 1 0.085739 1.434342 2.292811
2 1 7.952428 12.377254 6.002811
3 1 14.586325 4.439370 9.712811
4 1 1.884169 14.974540 13.422811
5 1 9.204233 7.174611 17.132811
6 1 15.819850 17.865992 0.842811
7 1 3.697686 9.643280 4.552811
8 1 9.978557 0.949301 8.262811
9 1 17.908936 12.028600 11.972811
10 1 4.428718 3.992550 15.682811
11 1 11.870935 14.570316 19.392811
12 1 19.041873 6.790885 3.102811
13 1 5.785015 17.402298 6.812811
14 1 13.579454 9.304898 10.522811
15 1 -0.115144 0.462407 14.232811
16 1 7.853916 11.687177 17.942811
17 1 14.278651 3.534402 1.652811
18 1 1.855484 14.179520 5.362811
19 1 8.876017 6.394008 9.072811
20 1 15.758773 16.949155 12.782811
21 1 3.449052 8.960427 16.492811
22 1 9.804752 -0.023937 0.202811
23 1 17.786275 11.350841 3.912811
24 1 4.138000 3.066429 7.622811
25 1 11.835487 13.801549 11.332811
26 1 18.709035 5.983568 15.042811
27 1 5.739131 16.507913 18.752811
28 1 13.307743 8.607819 2.462811
29 1 -0.262064 19.492655 6.172811
30 1 7.705314 11.017292 9.882811
31 1 14.008348 2.590443 13.592811
32 1 1.808757 13.435405 17.302811
33 1 8.543334 5.559582 1.012811
34 1 15.723891 16.079548 4.722811
35 1 3.157131 8.245279 8.432811
36 1 9.683684 19.014475 12.142811
37 1 17.610738 10.684219 15.852811
38 1 3.890935 2.108507 19.562811
39 1 11.773317 13.079715 3.272811
40 1 18.381278 5.122484 6.982811
41 1 5.710717 15.664633 10.692811
42 1 12.999109 7.871325 14.402811
43 1 19.640878 18.543655 18.112811
44 1 7.502701 10.349059 1.822811
45 1 13.786616 1.622868 5.532811
46 1 1.727461 12.732784 9.242811
47 1 8.225119 4.673122 12.952811
48 1 15.697208 15.263322 16.662811
49 1 2.835802 7.484831 0.372811
50 1 9.608043 18.082094 4.082811
51 1 17.381768 10.009553 7.792811
52 1 3.695839 1.135889 11.502811
53 1 11.669810 12.392640 15.212811
54 1 18.076924 4.212726 18.922811
55 1 5.680974 14.875343 2.632811
56 1 12.669502 7.085062 6.342811
57 1 19.583394 17.631405 10.052811
58 1 7.248906 9.663500 13.762811
59 1 13.618628 0.649976 17.472811
60 1 1.599355 12.057100 1.182811
61 1 7.938512 3.742871 4.892811
62 1 15.659710 14.500009 8.602811
63 1 2.502593 6.671699 12.312811
64 1 9.564888 17.192859 16.022811
65 1 17.105454 9.308901 19.732811
66 1 3.554584 0.167501 3.442811
67 1 11.515482 11.723919 7.152811
68 1 17.811396 3.265427 10.862811
69 1 5.631268 14.136236 14.572811
70 1 12.337477 6.244846 18.282811
71 1 19.550292 16.767347 1.992811
72 1 6.953082 8.944024 5.702811
73 1 13.502896 19.690728 9.412811
74 1 1.417988 11.390537 13.122811
75 1 7.696735 2.782501 16.832811
76 1 15.593724 13.782580 0.542811
77 1 2.176503 5.805031 4.252811
78 1 9.537249 16.355354 7.962811
79 1 16.793740 8.567460 11.672811
80 1 3.462366 19.221745 15.382811
81 1 11.307120 11.054637 19.092811
82 1 17.595300 2.296372 2.802811
83 1 5.545441 13.437280 6.512811
84 1 12.021887 5.353184 10.222811
85 1 19.523355 15.956943 13.932811
86 1 6.629593 8.178164 17.642811
87 1 13.431449 18.762394 1.352811
88 1 1.183532 10.713906 5.062811
89 1 7.507448 1.809419 8.772811
90 1 15.485113 13.098315 12.482811
91 1 1.875649 4.890614 16.192811
92 1 9.506231 15.571751 19.902811
93 1 16.462960 7.775489 3.612811
94 1 3.408299 18.314217 7.322811
95 1 11.048271 10.366178 11.032811
96 1 17.433112 1.324047 14.742811
97 1 5.411814 12.763464 18.452811
98 1 11.739546 4.418962 2.162811
99 1 19.483600 15.199003 5.872811
100 1 6.296234 7.359207 9.582811
ITEM: TIMESTEP
300
ITEM: NUMBER OF ATOMS
100
ITEM: BOX BOUNDS pp pp pp
0.0 20
0.0 20
0.0 20
ITEM: ATOMS id type xu yu zu
1 1 0.253411 0.815024 2.012085
2 1 8.054075 13.010834 5.722085
3 1 14.233309 3.903601 9.432085
4 1 2.426206 15.317854 13.142085
5 1 8.569004 7.084319 16.852085
6 1 16.436049 17.687200 0.562085
7 1 3.209361 10.059461 4.272085
8 1 10.252657 0.369182 7.982085
9 1 17.897436 12.670179 11.692085
10 1 4.175555 3.402993 15.402085
11 1 12.344053 15.003808 19.112085
12 1 18.432466 6.590155 2.822085
13 1 6.423069 17.334798 6.532085
14 1 13.025478 9.628594 10.242085
15 1 0.256820 -0.060385 13.952085
16 1 7.729629 12.316707 17.662085
17 1 14.133251 2.909480 1.372085
18 1 2.244882 14.689544 5.082085
19 1 8.311475 6.089111 8.792085
20 1 16.398743 16.995057 12.502085
21 1 2.846735 9.181523 16.212085
22 1 10.262956 -0.473067 -0.077915
23 1 17.553084 11.948652 3.632085
24 1 4.104906 2.425669 7.342085
25 1 12.128998 14.372169 11.052085
26 1 18.207000 5.584032 14.762085
27 1 6.361020 16.665782 18.472085
28 1 12.675907 8.719406 2.182085
29 1 0.268063 19.131221 5.892085
30 1 7.370505 11.564702 9.602085
31 1 14.088595 1.953867 13.312085
32 1 1.997209 14.048790 17.022085
33 1 8.119491 5.077891 0.732085
34 1 16.308267 16.344450 4.442085
35 1 2.515518 8.243871 8.152085
36 1 10.269168 18.752031 11.862085
37 1 17.184786 11.164045 15.572085
38 1 4.082014 1.496006 19.282085
39 1 11.850820 13.716699 2.992085
40 1 18.048872 4.573690 6.702085
41 1 6.239320 16.028292 10.412085
42 1 12.367768 7.756966 14.122085
43 1 20.263425 18.388402 17.832085
44 1 6.998917 10.746388 1.542085
45 1 14.082557 1.053581 5.252085
46 1 1.691595 13.373462 8.962085
47 1 7.994536 4.074373 12.672085
48 1 16.153515 15.714475 16.382085
49 1 2.234462 7.261094 0.092085
50 1 10.248201 18.038884 3.802085
51 1 16.815894 10.311970 7.512085
52 1 4.087395 0.627605 11.222085
53 1 11.521696 13.016993 14.932085
54 1 17.955370 3.582731 18.642085
55 1 6.050714 15.399793 2.352085
56 1 12.116952 6.758938 6.062085
57 1 20.221158 17.701587 9.772085
58 1 6.638625 9.861554 13.482085
59 1 14.093564 0.218577 17.192085
60 1 1.343620 12.645620 0.902085
61 1 7.929785 3.101316 4.612085
62 1 15.931330 15.081368 8.322085
63 1 2.016099 6.253379 12.032085
64 1 10.180331 17.374239 15.742085
65 1 16.469835 9.396404 19.452085
66 1 4.098059 -0.173532 3.162085
67 1 11.160119 12.258135 6.872085
68 1 17.915769 2.632359 10.582085
69 1 5.796280 14.756338 14.292085
70 1 11.932241 5.747401 18.002085
71 1 20.124183 17.054259 1.712085
72 1 6.311986 8.918242 5.422085
73 1 14.097928 19.450717 9.132085
74 1 0.974114 11.853834 12.842085
75 1 7.910946 2.177701 16.552085
76 1 15.646973 14.422049 0.262085
77 1 1.865186 5.244004 3.972085
78 1 10.051655 16.738833 7.682085
79 1 16.167200 8.429198 11.392085
80 1 4.090363 19.090255 15.102085
81 1 10.788605 11.432540 18.812085
82 1 17.912655 1.738739 2.522085
83 1 5.485261 14.076134 6.232085
84 1 11.814218 4.746107 9.942085
85 1 19.962193 16.425106 13.652085
86 1 6.037187 7.931743 17.362085
87 1 14.072786 18.743534 1.072085
88 1 0.606577 10.994606 4.782085
89 1 7.918032 1.316378 8.492085
90 1 15.313386 13.716591 12.202085
91 1 1.778117 4.256456 15.912085
92 1 9.855780 16.109869 19.622085
93 1 15.923198 7.428609 3.332085
94 1 4.042937 18.408577 7.042085
95 1 10.430906 10.540904 10.752085
96 1 17.924094 0.911003 14.462085
97 1 5.133906 13.341844 18.172085
98 1 11.755199 3.777539 1.882085
99 1 19.732938 15.790261 5.592085
100 1 5.825983 6.922706 9.302085
ITEM: TIMESTEP
400
ITEM: NUMBER OF ATOMS
100
ITEM: BOX BOUNDS pp pp pp
0.0 20
0.0 20
0.0 20
ITEM: ATOMS id type xu yu zu
1 1 0.866420 1.034414 1.689098
2 1 7.405058 13.062684 5.399098
3 1 14.803653 3.589563 9.109098
4 1 2.035273 15.838597 12.819098
5 1 8.711397 6.448996 16.529098
6 1 16.567351 18.324979 0.239098
7 1 2.827612 9.532033 3.949098
8 1 10.817459 0.693082 7.659098
9 1 17.249430 12.606941 11.369098
10 1 4.792283 3.194286 15.079098
11 1 11.867537 15.447480 18.789098
12 1 18.684501 5.989829 2.499098
13 1 6.440020 17.985731 6.209098
14 1 12.742561 9.042190 9.919098
15 1 0.755766 0.357903 13.629098
16 1 7.102881 12.140358 17.339098
17 1 14.777092 2.812625 1.049098
18 1 1.697691 15.042380 4.759098
19 1 8.665276 5.542542 8.469098
20 1 16.300815 17.638805 12.179098
21 1 2.671492 8.554466 15.889098
22 1 10.680456 0.026539 -0.400902
23 1 16.967179 11.664702 3.309098
24 1 4.755742 2.443693 7.019098
25 1 11.528229 14.623145 10.729098
26 1 18.651511 5.108300 14.439098
27 1 6.151273 17.282229 18.149098
28 1 12.613812 8.071289 1.859098
29 1 0.591064 19.696616 5.569098
30 1 6.843751 11.182024 9.279098
31 1 14.726088 2.086207 12.989098
32 1 1.361635 14.190063 16.699098
33 1 8.640823 4.687859 0.409098
34 1 15.993255 16.914335 4.119098
35 1 2.568512 7.594946 7.829098
36 1 10.487569 19.365466 11.539098
37 1 16.733643 10.694597 15.249098
38 1 4.686245 1.738527 18.959098
39 1 11.200302 13.743855 2.669098
40 1 18.630734 4.281546 6.379098
41 1 5.828885 16.533807 10.089098
42 1 12.534195 7.127511 13.799098
43 1 20.370402 19.030708 17.509098
44 1 6.637482 10.204838 1.219098
45 1 14.634646 1.398704 4.929098
46 1 1.046459 13.285652 8.639098
47 1 8.618748 3.889247 12.349098
48 1 15.660488 16.139723 16.059098
49 1 2.509121 6.670777 -0.230902
50 1 10.240411 18.689991 3.479098
51 1 16.555461 9.715240 7.189098
52 1 4.570090 1.064546 10.899098
53 1 10.902101 12.816961 14.609098
54 1 18.602426 3.510407 18.319098
55 1 5.490513 15.731586 2.029098
56 1 12.491262 6.226206 5.739098
57 1 20.098845 18.341150 9.449098
58 1 6.487330 9.228291 13.159098
59 1 14.491782 0.733683 16.869098
60 1 0.768926 12.339616 0.579098
61 1 8.579466 3.144053 4.289098
62 1 15.321460 15.309339 7.999098
63 1 2.478362 5.794877 11.709098
64 1 9.947316 17.982274 15.419098
65 1 16.432407 8.746395 19.129098
66 1 4.399347 0.403726 2.839098
67 1 10.648283 11.855721 6.549098
68 1 18.547774 2.788822 10.259098
69 1 5.155798 14.873363 13.969098
70 1 12.468014 5.377457 17.679098
71 1 19.787747 17.611765 1.389098
72 1 6.389595 8.271799 5.099098
73 1 14.292867 20.072007 8.809098
74 1 0.541131 11.367585 12.519098
75 1 8.505527 2.443002 16.229098
76 1 14.995892 14.424471 -0.060902
77 1 2.457727 4.974177 3.649098
78 1 9.622311 17.228390 7.359098
79 1 16.357420 7.806520 11.069098
80 1 4.172861 19.736162 14.779098
81 1 10.448005 10.877650 18.489098
82 1 18.451234 2.104587 2.199098
83 1 4.843926 13.963878 5.909098
84 1 12.445012 4.584829 9.619098
85 1 19.453366 16.831316 13.329098
86 1 6.334075 7.352287 17.039098
87 1 14.040266 19.393876 0.749098
88 1 0.369002 10.388413 4.459098
89 1 8.383778 1.771341 8.169098
90 1 14.701837 13.493164 11.879098
91 1 2.427453 4.208766 15.589098
92 1 9.283378 16.420140 19.299098
93 1 16.317477 6.910481 3.009098
94 1 3.896414 19.043031 6.719098
95 1 10.303779 9.902350 10.429098
96 1 18.302456 1.440866 14.139098
97 1 4.571252 13.014228 17.849098
98 1 12.402787 3.844927 1.559098
99 1 19.114847 15.994898 5.269098
100 1 6.305332 6.482097 8.979098
ITEM: TIMESTEP
500
ITEM: NUMBER OF ATOMS
100
ITEM: BOX BOUNDS pp pp pp
0.0 20
0.0 20
0.0 20
ITEM: ATOMS id type xu yu zu
1 1 0.618678 1.419059 1.459296
2 1 7.472873 12.610245 5.169296
3 1 14.927801 4.029889 8.879296
4 1 1.741171 15.488163 12.589296
5 1 9.123547 6.647571 16.299296
6 1 16.110008 18.313279 0.009296
7 1 3.249344 9.354713 3.719296
8 1 10.505860 1.028095 7.429296
9 1 17.395850 12.173512 11.139296
10 1 4.836956 3.649624 14.849296
11 1 11.639734 15.050736 18.559296
12 1 19.055247 6.257872 2.269296
13 1 5.991883 17.893686 5.979296
14 1 13.188926 8.941898 9.689296
15 1 0.390047 0.632817 13.399296
16 1 7.323330 11.739482 17.109296
17 1 14.740893 3.268714 0.819296
18 1 1.543304 14.611724 4.529296
19 1 8.983034 5.871677 8.239296
20 1 15.875886 17.469291 11.949296
21 1 3.128542 8.534335 15.659296
22 1 10.272045 0.232763 -0.630704
23 1 17.254769 11.308905 3.079296
24 1 4.639801 2.886283 6.789296
25 1 11.452083 14.172034 10.499296
26 1 18.906350 5.488242 14.209296
27 1 5.762831 17.040544 17.919296
28 1 13.067266 8.131949 1.629296
29 1 0.152730 19.827623 5.339296
30 1 7.189496 10.882424 9.049296
31 1 14.534029 2.501467 12.759296
32 1 1.366109 13.732592 16.469296
33 1 8.824782 5.106737 0.179296
34 1 15.653436 16.608030 3.889296
35 1 3.004200 7.734501 7.599296
36 1 10.033016 19.417245 11.309296
37 1 17.126739 10.460555 15.019296
38 1 4.424069 2.113482 18.729296
39 1 11.285257 13.294319 2.439296
40 1 18.738064 4.726271 6.149296
41 1 5.548309 16.172452 9.859296
42 1 12.938504 7.341600 13.569296
43 1 19.913833 19.001642 17.279296
44 1 7.065645 10.043668 0.989296
45 1 14.310545 1.721637 4.699296
46 1 1.209239 12.858098 8.409296
47 1 8.646090 4.345952 12.119296
48 1 15.447922 15.734611 15.829296
49 1 2.869417 6.952711 -0.460704
50 1 9.796093 18.580988 3.249296
51 1 17.005313 9.631978 6.959296
52 1 4.194191 1.325367 10.669296
53 1 11.137620 12.424749 14.379296
54 1 18.548926 3.964791 18.089296
55 1 5.352599 15.295376 1.799296
56 1 12.796286 6.567175 5.509296
57 1 19.680662 18.155615 9.219296
58 1 6.944815 9.225539 12.929296
59 1 14.075831 0.924243 16.639296
60 1 1.069825 11.995002 0.349296
61 1 8.446795 3.581919 4.059296
62 1 15.262507 14.855660 7.769296
63 1 2.718584 6.184227 11.479296
64 1 9.568336 17.726005 15.189296
65 1 16.883229 8.824239 18.899296
66 1 3.956352 0.517986 2.609296
67 1 11.005161 11.569472 6.319296
68 1 18.340078 3.196486 10.029296
69 1 5.177649 14.416392 13.739296
70 1 12.635927 5.803021 17.449296
71 1 19.459810 17.292771 1.159296
72 1 6.819667 8.427805 4.869296
73 1 13.836675 20.106480 8.579296
74 1 0.942834 11.148647 12.289296
75 1 8.229296 2.807726 15.999296
76 1 15.097864 13.978487 -0.290704
77 1 2.548084 5.422690 3.419296
78 1 9.355666 16.856637 7.129296
79 1 16.753303 8.035815 10.839296
80 1 3.717726 19.689771 14.549296
81 1 10.881982 10.732863 18.259296
82 1 18.115098 2.414975 1.969296
83 1 5.022832 13.542817 5.679296
84 1 12.454984 5.042243 9.389296
85 1 19.256344 16.418421 13.099296
86 1 6.683399 7.647706 16.809296
87 1 13.600410 19.268071 0.519296
88 1 0.821693 10.322301 4.229296
89 1 7.998242 2.017694 7.939296
90 1 14.952087 13.110183 11.649296
91 1 2.356729 4.660790 15.359296
92 1 9.162136 15.979005 19.069296
93 1 16.609327 7.262792 2.779296
94 1 3.485582 18.841744 6.489296
95 1 10.761038 9.916980 10.199296
96 1 17.879566 1.615485 13.909296
97 1 4.885026 12.681293 17.619296
98 1 12.253577 4.277436 1.329296
99 1 19.073173 15.539307 5.039296
100 1 6.530588 6.880292 8.749296
ITEM: TIMESTEP
600
ITEM: NUMBER OF ATOMS
100
ITEM: BOX BOUNDS pp pp pp
0.0 20
0.0 20
0.0 20
ITEM: ATOMS id type xu yu zu
1 1 0.368087 1.480845 2.770972
2 1 7.675920 12.450917 6.480972
3 1 14.808149 4.258604 10.190972
4 1 1.756252 15.230508 13.900972
5 1 9.215685 6.888689 17.610972
6 1 15.926935 18.131351 1.320972
7 1 3.491016 9.445312 5.030972
8 1 10.248305 1.044792 8.740972
9 1 17.623778 12.052426 12.450972
10 1 4.678906 3.853666 16.160972
11 1 11.699946 14.799762 19.870972
12 1 19.103490 6.511446 3.580972
13 1 5.843703 17.682366 7.290972
14 1 13.410870 9.073634 11.000972
15 1 0.133576 0.603903 14.710972
16 1 7.569018 11.660420 18.420972
17 1 14.549384 3.441740 2.130972
18 1 1.646766 14.375274 5.840972
19 1 8.985874 6.129784 9.550972
20 1 15.767231 17.235182 13.260972
21 1 3.323821 8.703134 16.970972
22 1 10.024672 0.159142 0.680972
23 1 17.510540 11.274339 4.390972
24 1 4.420819 3.022885 8.100972
25 1 11.595563 13.957495 11.810972
26 1 18.863700 5.742816 15.520972
27 1 5.697094 16.790960 19.230972
28 1 13.229773 8.332495 2.940972
29 1 -0.077816 19.711596 6.650972
30 1 7.447357 10.893433 10.360972
31 1 14.294416 2.597377 14.070972
32 1 1.545123 13.546668 17.780972
33 1 8.737973 5.349824 1.490972
34 1 15.632673 16.350771 5.200972
35 1 3.128857 7.960528 8.910972
36 1 9.826502 19.262438 12.620972
37 1 17.378632 10.516796 16.330972
38 1 4.171312 2.165703 20.040972
39 1 11.494210 13.142820 3.750972
40 1 18.609809 4.950275 7.460972
41 1 5.573168 15.915557 11.170972
42 1 13.021415 7.586044 14.880972
43 1 19.737804 18.812890 18.590972
44 1 7.303701 10.143383 2.300972
45 1 14.052541 1.728538 6.010972
46 1 1.441604 12.745758 9.720972
47 1 8.480402 4.543843 13.430972
48 1 15.517625 15.486106 17.140972
49 1 2.907991 7.207935 0.850972
50 1 9.656049 18.364190 4.560972
51 1 17.222092 9.772051 8.270972
52 1 3.939004 1.286731 11.980972
53 1 11.386135 12.355079 15.690972
54 1 18.350982 4.130417 19.400972
55 1 5.464970 15.063026 3.110972
56 1 12.789319 6.825203 6.820972
57 1 19.580979 17.917547 10.530972
58 1 7.133541 9.401635 14.240972
59 1 13.831434 0.841278 17.950972
60 1 1.326725 11.970177 1.660972
61 1 8.222781 3.710103 5.370972
62 1 15.414034 14.646727 9.080972
63 1 2.666293 6.436997 12.790972
64 1 9.512129 17.474104 16.500972
65 1 17.038000 9.030813 20.210972
66 1 3.730381 0.393284 3.920972
67 1 11.262417 11.590270 7.630972
68 1 18.096994 3.283224 11.340972
69 1 5.363596 14.237404 15.050972
70 1 12.539945 6.042635 18.760972
71 1 19.448836 17.034908 2.470972
72 1 6.935647 8.658404 6.180972
73 1 13.636191 19.943938 9.890972
74 1 1.192410 11.214416 13.600972
75 1 7.974737 2.850307 17.310972
76 1 15.312422 13.835036 1.020972
77 1 2.411412 5.641628 4.730972
78 1 9.390266 16.600871 8.440972
79 1 16.826868 8.283233 12.150972
80 1 3.548995 19.494469 15.860972
81 1 11.116077 10.841549 19.570972
82 1 17.857019 2.412069 3.280972
83 1 5.259297 13.439386 6.990972
84 1 12.281898 5.233697 10.700972
85 1 19.335438 16.172744 14.410972
86 1 6.712250 7.904211 18.120972
87 1 13.468704 19.046110 1.830972
88 1 1.032993 10.470509 5.540972
89 1 7.744707 1.969391 9.250972
90 1 15.203069 13.050004 12.960972
91 1 2.152636 4.818775 16.670972
92 1 9.283252 15.751092 20.380972
93 1 16.592562 7.520370 4.090972
94 1 3.395015 18.600060 7.800972
95 1 10.942937 10.100119 11.510972
96 1 17.638497 1.523295 15.220972
97 1 5.142683 12.666247 18.930972
98 1 12.024855 4.397017 2.640972
99 1 19.232527 15.336281 6.350972
100 1 6.468732 7.130893 10.060972
ITEM: TIMESTEP
700
ITEM: NUMBER OF ATOMS
100
ITEM: BOX BOUNDS pp pp pp
0.0 20
0.0 20
0.0 20
ITEM: ATOMS id type xu yu zu
1 1 -0.020857 1.033186 2.565356
2 1 8.214488 12.699249 6.275356
3 1 14.215148 4.253583 9.985356
4 1 2.298906 14.991339 13.695356
5 1 8.819218 7.329698 17.405356
6 1 16.107090 17.566356 1.115356
7 1 3.558922 10.034474 4.825356
8 1 9.944261 0.535644 8.535356
9 1 18.110206 12.391707 12.245356
10 1 4.096054 3.744310 15.955356
11 1 12.276234 14.659879 19.665356
12 1 18.635565 6.875756 3.375356
13 1 6.120527 17.157920 7.085356
14 1 13.373977 9.665548 10.795356
15 1 -0.076068 0.049174 14.505356
16 1 7.988106 12.080049 18.215356
17 1 13.994893 3.231465 1.925356
18 1 2.238681 14.339047 5.635356
19 1 8.461113 6.406011 9.345356
20 1 16.132072 16.767671 13.055356
21 1 3.183283 9.279263 16.765356
22 1 9.915978 -0.423834 0.475356
23 1 17.849193 11.761203 4.185356
24 1 3.912016 2.718262 7.895356
25 1 12.184608 14.026056 11.605356
26 1 18.298501 5.922330 15.315356
27 1 6.138553 16.394994 19.025356
28 1 12.989987 8.874877 2.735356
29 1 -0.082163 19.118590 6.445356
30 1 7.694993 11.432321 10.155356
31 1 13.847199 2.207926 13.865356
32 1 2.112893 13.717876 17.575356
33 1 8.149996 5.427014 1.285356
34 1 16.136955 16.038722 4.995356
35 1 2.797316 8.452215 8.705356
36 1 9.926638 18.677931 12.415356
37 1 17.527514 11.090867 16.125356
38 1 3.799656 1.703591 19.835356
39 1 12.022954 13.411433 3.545356
40 1 18.017427 4.922729 7.255356
41 1 6.124516 15.697176 10.965356
42 1 12.608479 8.011673 14.675356
43 1 19.939294 18.255148 18.385356
44 1 7.349175 10.734699 2.095356
45 1 13.768060 1.208206 5.805356
46 1 1.914790 13.103274 9.515356
47 1 7.902125 4.412423 13.225356
48 1 16.098812 15.368217 16.935356
49 1 2.426564 7.554205 0.645356
50 1 9.952597 17.850639 4.355356
51 1 17.162739 10.362136 8.065356
52 1 3.750585 0.724438 11.775356
53 1 11.788978 12.790326 15.485356
54 1 17.804880 3.899228 19.195356
55 1 6.057833 15.049313 2.905356
56 1 12.254443 7.081295 6.615356
57 1 19.963319 17.464234 10.325356
58 1 6.971217 9.972008 14.035356
59 1 13.744966 0.254593 17.745356
60 1 1.646637 12.469556 1.455356
61 1 7.725919 3.386370 5.165356
62 1 16.000049 14.737617 8.875356
63 1 2.094681 6.594908 12.585356
64 1 9.968312 17.095196 16.295356
65 1 16.777782 9.563694 20.005356
66 1 3.748566 -0.199459 3.715356
67 1 11.489402 12.138176 7.425356
68 1 17.664895 2.877063 11.135356
69 1 5.924452 14.430058 14.845356
70 1 11.949460 6.097431 18.555356
71 1 19.964609 16.742243 2.265356
72 1 6.585666 9.137141 5.975356
73 1 13.758461 19.363657 9.685356
74 1 1.319374 11.793729 13.395356
75 1 7.620905 2.374409 17.105356
76 1 15.830580 14.123543 0.815356
77 1 1.820504 5.591598 4.525356
78 1 9.949513 16.403594 8.235356
79 1 16.398061 8.692866 11.945356
80 1 3.771528 18.944783 15.655356
81 1 11.139055 11.434167 19.365356
82 1 17.592511 1.881305 3.075356
83 1 5.718560 13.814620 6.785356
84 1 11.709031 5.080402 10.495356
85 1 19.920684 16.077020 14.205356
86 1 6.218015 8.231941 17.915356
87 1 13.784548 18.544195 1.625356
88 1 0.951265 11.057913 5.335356
89 1 7.577786 1.400345 9.045356
90 1 15.589086 13.500242 12.755356
91 1 1.615712 4.567007 16.465356
92 1 9.876209 15.759912 20.175356
93 1 16.048343 7.755956 3.885356
94 1 3.794300 18.161600 7.595356
95 1 10.759061 10.663914 11.305356
96 1 17.574380 0.933749 15.015356
97 1 5.443393 13.177419 18.725356
98 1 11.540650 4.054642 2.435356
99 1 19.814667 15.449370 6.145356
100 1 5.891534 7.266974 9.855356
ITEM: TIMESTEP
800
ITEM: NUMBER OF ATOMS
100
ITEM: BOX BOUNDS pp pp pp
0.0 20
0.0 20
0.0 20
ITEM: ATOMS id type xu yu zu
1 1 0.743158 0.557832 2.174257
2 1 7.713248 13.446536 5.884257
3 1 14.364924 3.366314 9.594257
4 1 2.526986 15.861871 13.304257
5 1 8.253576 6.629892 17.014257
6 1 16.910387 17.971812 0.724257
7 1 2.659972 9.994873 4.434257
8 1 10.780038 0.202242 8.144257
9 1 17.485217 13.039062 11.854257
10 1 4.399717 2.897275 15.564257
11 1 12.347470 15.556970 19.274257
12 1 18.201981 6.087287 2.984257
13 1 6.839881 17.698483 6.694257
14 1 12.496045 9.468280 10.404257
15 1 0.805355 -0.131857 14.114257
16 1 7.258898 12.607244 17.824257
17 1 14.442956 2.451132 1.534257
18 1 2.150846 15.234665 5.244257
19 1 8.173134 5.553516 8.954257
20 1 16.744989 17.426594 12.664257
21 1 2.353802 8.930493 16.374257
22 1 10.815506 -0.446838 0.084257
23 1 17.038550 12.151764 3.794257
24 1 4.490477 2.029014 7.504257
25 1 11.940448 14.892216 11.214257
26 1 18.165126 5.032447 14.924257
27 1 6.625873 17.151543 18.634257
28 1 12.234876 8.385503 2.344257
29 1 0.807362 19.254332 6.054257
30 1 6.828247 11.674044 9.764257
31 1 14.537984 1.631300 13.474257
32 1 1.720036 14.527512 17.184257
33 1 8.175393 4.527550 0.894257
34 1 16.483450 16.869257 4.604257
35 1 2.140170 7.837530 8.314257
36 1 10.778364 18.968177 12.024257
37 1 16.631747 11.176199 15.734257
38 1 4.581178 1.257606 19.444257
39 1 11.493687 14.139138 3.154257
40 1 18.200803 4.041791 6.864257
41 1 6.319359 16.575745 10.574257
42 1 12.069832 7.290883 14.284257
43 1 20.726607 18.690828 17.994257
44 1 6.452379 10.660974 1.704257
45 1 14.615899 0.906797 5.414257
46 1 1.265659 13.726418 9.124257
47 1 8.237749 3.577536 12.834257
48 1 16.135915 16.267367 16.544257
49 1 2.023247 6.749833 0.254257
50 1 10.650896 18.418141 3.964257
51 1 16.292934 10.131658 7.674257
52 1 4.638250 0.577024 11.384257
53 1 11.040267 13.289437 15.094257
54 1 18.282265 3.136481 18.804257
55 1 5.936037 15.940948 2.514257
56 1 11.999058 6.218475 6.224257
57 1 20.550760 18.145967 9.934257
58 1 6.155584 9.591978 13.644257
59 1 14.644719 0.265779 17.354257
60 1 0.821742 12.829038 1.064257
61 1 8.330147 2.719596 4.774257
62 1 15.723159 15.593876 8.484257
63 1 1.995210 5.700601 12.194257
64 1 10.426538 17.869712 15.904257
65 1 16.041807 9.045987 19.614257