ITEM: TIMESTEP
0
ITEM: NUMBER OF ATOMS
1
ITEM: BOX BOUNDS pp pp pp
0.0 1.0
0.0 1.0
0.0 1.0
ITEM: ATOMS id type x y z
1 1 0.5 0.5 0.5
