ITEM: TIMESTEP
0
ITEM: NUMBER OF ATOMS
1600
ITEM: BOX BOUNDS pp pp pp
0.0 29.500000
0.0 25.547749
0.0 37.440000
ITEM: ATOMS id type x y z
1 1 0.00000 0.00000 0.00000
2 1 0.00000 1.70318 2.34000
3 1 0.00000 0.00000 4.68000
4 1 0.00000 1.70318 7.02000
5 1 0.00000 0.00000 9.36000
6 1 0.00000 1.70318 11.70000
7 1 0.00000 0.00000 14.04000
8 1 0.00000 1.70318 16.38000
9 1 0.00000 0.00000 18.72000
10 1 0.00000 1.70318 21.06000
11 1 0.00000 0.00000 23.40000
12 1 0.00000 1.70318 25.74000
13 1 0.00000 0.00000 28.08000
14 1 0.00000 1.70318 30.42000
15 1 0.00000 0.00000 32.76000
16 1 0.00000 1.70318 35.10000
17 1 -1.47500 2.55477 0.00000
18 1 -1.47500 4.25796 2.34000
19 1 -1.47500 2.55477 4.68000
20 1 -1.47500 4.25796 7.02000
21 1 -1.47500 2.55477 9.36000
22 1 -1.47500 4.25796 11.70000
23 1 -1.47500 2.55477 14.04000
24 1 -1.47500 4.25796 16.38000
25 1 -1.47500 2.55477 18.72000
26 1 -1.47500 4.25796 21.06000
27 1 -1.47500 2.55477 23.40000
28 1 -1.47500 4.25796 25.74000
29 1 -1.47500 2.55477 28.08000
30 1 -1.47500 4.25796 30.42000
31 1 -1.47500 2.55477 32.76000
32 1 -1.47500 4.25796 35.10000
33 1 -2.95000 5.10955 0.00000
34 1 -2.95000 6.81273 2.34000
35 1 -2.95000 5.10955 4.68000
36 1 -2.95000 6.81273 7.02000
37 1 -2.95000 5.10955 9.36000
38 1 -2.95000 6.81273 11.70000
39 1 -2.95000 5.10955 14.04000
40 1 -2.95000 6.81273 16.38000
41 1 -2.95000 5.10955 18.72000
42 1 -2.95000 6.81273 21.06000
43 1 -2.95000 5.10955 23.40000
44 1 -2.95000 6.81273 25.74000
45 1 -2.95000 5.10955 28.08000
46 1 -2.95000 6.81273 30.42000
47 1 -2.95000 5.10955 32.76000
48 1 -2.95000 6.81273 35.10000
49 1 -4.42500 7.66432 0.00000
50 1 -4.42500 9.36751 2.34000
51 1 -4.42500 7.66432 4.68000
52 1 -4.42500 9.36751 7.02000
53 1 -4.42500 7.66432 9.36000
54 1 -4.42500 9.36751 11.70000
55 1 -4.42500 7.66432 14.04000
56 1 -4.42500 9.36751 16.38000
57 1 -4.42500 7.66432 18.72000
58 1 -4.42500 9.36751 21.06000
59 1 -4.42500 7.66432 23.40000
60 1 -4.42500 9.36751 25.74000
61 1 -4.42500 7.66432 28.08000
62 1 -4.42500 9.36751 30.42000
63 1 -4.42500 7.66432 32.76000
64 1 -4.42500 9.36751 35.10000
65 1 -5.90000 10.21910 0.00000
66 1 -5.90000 11.92228 2.34000
67 1 -5.90000 10.21910 4.68000
68 1 -5.90000 11.92228 7.02000
69 1 -5.90000 10.21910 9.36000
70 1 -5.90000 11.92228 11.70000
71 1 -5.90000 10.21910 14.04000
72 1 -5.90000 11.92228 16.38000
73 1 -5.90000 10.21910 18.72000
74 1 -5.90000 11.92228 21.06000
75 1 -5.90000 10.21910 23.40000
76 1 -5.90000 11.92228 25.74000
77 1 -5.90000 10.21910 28.08000
78 1 -5.90000 11.92228 30.42000
79 1 -5.90000 10.21910 32.76000
80 1 -5.90000 11.92228 35.10000
81 1 -7.37500 12.77387 0.00000
82 1 -7.37500 14.47706 2.34000
83 1 -7.37500 12.77387 4.68000
84 1 -7.37500 14.47706 7.02000
85 1 -7.37500 12.77387 9.36000
86 1 -7.37500 14.47706 11.70000
87 1 -7.37500 12.77387 14.04000
88 1 -7.37500 14.47706 16.38000
89 1 -7.37500 12.77387 18.72000
90 1 -7.37500 14.47706 21.06000
91 1 -7.37500 12.77387 23.40000
92 1 -7.37500 14.47706 25.74000
93 1 -7.37500 12.77387 28.08000
94 1 -7.37500 14.47706 30.42000
95 1 -7.37500 12.77387 32.76000
96 1 -7.37500 14.47706 35.10000
97 1 -8.85000 15.32865 0.00000
98 1 -8.85000 17.03183 2.34000
99 1 -8.85000 15.32865 4.68000
100 1 -8.85000 17.03183 7.02000
101 1 -8.85000 15.32865 9.36000
102 1 -8.85000 17.03183 11.70000
103 1 -8.85000 15.32865 14.04000
104 1 -8.85000 17.03183 16.38000
105 1 -8.85000 15.32865 18.72000
106 1 -8.85000 17.03183 21.06000
107 1 -8.85000 15.32865 23.40000
108 1 -8.85000 17.03183 25.74000
109 1 -8.85000 15.32865 28.08000
110 1 -8.85000 17.03183 30.42000
111 1 -8.85000 15.32865 32.76000
112 1 -8.85000 17.03183 35.10000
113 1 -10.32500 17.88342 0.00000
114 1 -10.32500 19.58661 2.34000
115 1 -10.32500 17.88342 4.68000
116 1 -10.32500 19.58661 7.02000
117 1 -10.32500 17.88342 9.36000
118 1 -10.32500 19.58661 11.70000
119 1 -10.32500 17.88342 14.04000
120 1 -10.32500 19.58661 16.38000
121 1 -10.32500 17.88342 18.72000
122 1 -10.32500 19.58661 21.06000
123 1 -10.32500 17.88342 23.40000
124 1 -10.32500 19.58661 25.74000
125 1 -10.32500 17.88342 28.08000
126 1 -10.32500 19.58661 30.42000
127 1 -10.32500 17.88342 32.76000
128 1 -10.32500 19.58661 35.10000
129 1 -11.80000 20.43820 0.00000
130 1 -11.80000 22.14138 2.34000
131 1 -11.80000 20.43820 4.68000
132 1 -11.80000 22.14138 7.02000
133 1 -11.80000 20.43820 9.36000
134 1 -11.80000 22.14138 11.70000
135 1 -11.80000 20.43820 14.04000
136 1 -11.80000 22.14138 16.38000
137 1 -11.80000 20.43820 18.72000
138 1 -11.80000 22.14138 21.06000
139 1 -11.80000 20.43820 23.40000
140 1 -11.80000 22.14138 25.74000
141 1 -11.80000 20.43820 28.08000
142 1 -11.80000 22.14138 30.42000
143 1 -11.80000 20.43820 32.76000
144 1 -11.80000 22.14138 35.10000
145 1 -13.27500 22.99297 0.00000
146 1 -13.27500 24.69616 2.34000
147 1 -13.27500 22.99297 4.68000
148 1 -13.27500 24.69616 7.02000
149 1 -13.27500 22.99297 9.36000
150 1 -13.27500 24.69616 11.70000
151 1 -13.27500 22.99297 14.04000
152 1 -13.27500 24.69616 16.38000
153 1 -13.27500 22.99297 18.72000
154 1 -13.27500 24.69616 21.06000
155 1 -13.27500 22.99297 23.40000
156 1 -13.27500 24.69616 25.74000
157 1 -13.27500 22.99297 28.08000
158 1 -13.27500 24.69616 30.42000
159 1 -13.27500 22.99297 32.76000
160 1 -13.27500 24.69616 35.10000
161 1 2.95000 0.00000 0.00000
162 1 2.95000 1.70318 2.34000
163 1 2.95000 0.00000 4.68000
164 1 2.95000 1.70318 7.02000
165 1 2.95000 0.00000 9.36000
166 1 2.95000 1.70318 11.70000
167 1 2.95000 0.00000 14.04000
168 1 2.95000 1.70318 16.38000
169 1 2.95000 0.00000 18.72000
170 1 2.95000 1.70318 21.06000
171 1 2.95000 0.00000 23.40000
172 1 2.95000 1.70318 25.74000
173 1 2.95000 0.00000 28.08000
174 1 2.95000 1.70318 30.42000
175 1 2.95000 0.00000 32.76000
176 1 2.95000 1.70318 35.10000
177 1 1.47500 2.55477 0.00000
178 1 1.47500 4.25796 2.34000
179 1 1.47500 2.55477 4.68000
180 1 1.47500 4.25796 7.02000
181 1 1.47500 2.55477 9.36000
182 1 1.47500 4.25796 11.70000
183 1 1.47500 2.55477 14.04000
184 1 1.47500 4.25796 16.38000
185 1 1.47500 2.55477 18.72000
186 1 1.47500 4.25796 21.06000
187 1 1.47500 2.55477 23.40000
188 1 1.47500 4.25796 25.74000
189 1 1.47500 2.55477 28.08000
190 1 1.47500 4.25796 30.42000
191 1 1.47500 2.55477 32.76000
192 1 1.47500 4.25796 35.10000
193 1 0.00000 5.10955 0.00000
194 1 0.00000 6.81273 2.34000
195 1 0.00000 5.10955 4.68000
196 1 0.00000 6.81273 7.02000
197 1 0.00000 5.10955 9.36000
198 1 0.00000 6.81273 11.70000
199 1 0.00000 5.10955 14.04000
200 1 0.00000 6.81273 16.38000
201 1 0.00000 5.10955 18.72000
202 1 0.00000 6.81273 21.06000
203 1 0.00000 5.10955 23.40000
204 1 0.00000 6.81273 25.74000
205 1 0.00000 5.10955 28.08000
206 1 0.00000 6.81273 30.42000
207 1 0.00000 5.10955 32.76000
208 1 0.00000 6.81273 35.10000
209 1 -1.47500 7.66432 0.00000
210 1 -1.47500 9.36751 2.34000
211 1 -1.47500 7.66432 4.68000
212 1 -1.47500 9.36751 7.02000
213 1 -1.47500 7.66432 9.36000
214 1 -1.47500 9.36751 11.70000
215 1 -1.47500 7.66432 14.04000
216 1 -1.47500 9.36751 16.38000
217 1 -1.47500 7.66432 18.72000
218 1 -1.47500 9.36751 21.06000
219 1 -1.47500 7.66432 23.40000
220 1 -1.47500 9.36751 25.74000
221 1 -1.47500 7.66432 28.08000
222 1 -1.47500 9.36751 30.42000
223 1 -1.47500 7.66432 32.76000
224 1 -1.47500 9.36751 35.10000
225 1 -2.95000 10.21910 0.00000
226 1 -2.95000 11.92228 2.34000
227 1 -2.95000 10.21910 4.68000
228 1 -2.95000 11.92228 7.02000
229 1 -2.95000 10.21910 9.36000
230 1 -2.95000 11.92228 11.70000
231 1 -2.95000 10.21910 14.04000
232 1 -2.95000 11.92228 16.38000
233 1 -2.95000 10.21910 18.72000
234 1 -2.95000 11.92228 21.06000
235 1 -2.95000 10.21910 23.40000
236 1 -2.95000 11.92228 25.74000
237 1 -2.95000 10.21910 28.08000
238 1 -2.95000 11.92228 30.42000
239 1 -2.95000 10.21910 32.76000
240 1 -2.95000 11.92228 35.10000
241 1 -4.42500 12.77387 0.00000
242 1 -4.42500 14.47706 2.34000
243 1 -4.42500 12.77387 4.68000
244 1 -4.42500 14.47706 7.02000
245 1 -4.42500 12.77387 9.36000
246 1 -4.42500 14.47706 11.70000
247 1 -4.42500 12.77387 14.04000
248 1 -4.42500 14.47706 16.38000
249 1 -4.42500 12.77387 18.72000
250 1 -4.42500 14.47706 21.06000
251 1 -4.42500 12.77387 23.40000
252 1 -4.42500 14.47706 25.74000
253 1 -4.42500 12.77387 28.08000
254 1 -4.42500 14.47706 30.42000
255 1 -4.42500 12.77387 32.76000
256 1 -4.42500 14.47706 35.10000
257 1 -5.90000 15.32865 0.00000
258 1 -5.90000 17.03183 2.34000
259 1 -5.90000 15.32865 4.68000
260 1 -5.90000 17.03183 7.02000
261 1 -5.90000 15.32865 9.36000
262 1 -5.90000 17.03183 11.70000
263 1 -5.90000 15.32865 14.04000
264 1 -5.90000 17.03183 16.38000
265 1 -5.90000 15.32865 18.72000
266 1 -5.90000 17.03183 21.06000
267 1 -5.90000 15.32865 23.40000
268 1 -5.90000 17.03183 25.74000
269 1 -5.90000 15.32865 28.08000
270 1 -5.90000 17.03183 30.42000
271 1 -5.90000 15.32865 32.76000
272 1 -5.90000 17.03183 35.10000
273 1 -7.37500 17.88342 0.00000
274 1 -7.37500 19.58661 2.34000
275 1 -7.37500 17.88342 4.68000
276 1 -7.37500 19.58661 7.02000
277 1 -7.37500 17.88342 9.36000
278 1 -7.37500 19.58661 11.70000
279 1 -7.37500 17.88342 14.04000
280 1 -7.37500 19.58661 16.38000
281 1 -7.37500 17.88342 18.72000
282 1 -7.37500 19.58661 21.06000
283 1 -7.37500 17.88342 23.40000
284 1 -7.37500 19.58661 25.74000
285 1 -7.37500 17.88342 28.08000
286 1 -7.37500 19.58661 30.42000
287 1 -7.37500 17.88342 32.76000
288 1 -7.37500 19.58661 35.10000
289 1 -8.85000 20.43820 0.00000
290 1 -8.85000 22.14138 2.34000
291 1 -8.85000 20.43820 4.68000
292 1 -8.85000 22.14138 7.02000
293 1 -8.85000 20.43820 9.36000
294 1 -8.85000 22.14138 11.70000
295 1 -8.85000 20.43820 14.04000
296 1 -8.85000 22.14138 16.38000
297 1 -8.85000 20.43820 18.72000
298 1 -8.85000 22.14138 21.06000
299 1 -8.85000 20.43820 23.40000
300 1 -8.85000 22.14138 25.74000
301 1 -8.85000 20.43820 28.08000
302 1 -8.85000 22.14138 30.42000
303 1 -8.85000 20.43820 32.76000
304 1 -8.85000 22.14138 35.10000
305 1 -10.32500 22.99297 0.00000
306 1 -10.32500 24.69616 2.34000
307 1 -10.32500 22.99297 4.68000
308 1 -10.32500 24.69616 7.02000
309 1 -10.32500 22.99297 9.36000
310 1 -10.32500 24.69616 11.70000
311 1 -10.32500 22.99297 14.04000
312 1 -10.32500 24.69616 16.38000
313 1 -10.32500 22.99297 18.72000
314 1 -10.32500 24.69616 21.06000
315 1 -10.32500 22.99297 23.40000
316 1 -10.32500 24.69616 25.74000
317 1 -10.32500 22.99297 28.08000
318 1 -10.32500 24.69616 30.42000
319 1 -10.32500 22.99297 32.76000
320 1 -10.32500 24.69616 35.10000
321 1 5.90000 0.00000 0.00000
322 1 5.90000 1.70318 2.34000
323 1 5.90000 0.00000 4.68000
324 1 5.90000 1.70318 7.02000
325 1 5.90000 0.00000 9.36000
326 1 5.90000 1.70318 11.70000
327 1 5.90000 0.00000 14.04000
328 1 5.90000 1.70318 16.38000
329 1 5.90000 0.00000 18.72000
330 1 5.90000 1.70318 21.06000
331 1 5.90000 0.00000 23.40000
332 1 5.90000 1.70318 25.74000
333 1 5.90000 0.00000 28.08000
334 1 5.90000 1.70318 30.42000
335 1 5.90000 0.00000 32.76000
336 1 5.90000 1.70318 35.10000
337 1 4.42500 2.55477 0.00000
338 1 4.42500 4.25796 2.34000
339 1 4.42500 2.55477 4.68000
340 1 4.42500 4.25796 7.02000
341 1 4.42500 2.55477 9.36000
342 1 4.42500 4.25796 11.70000
343 1 4.42500 2.55477 14.04000
344 1 4.42500 4.25796 16.38000
345 1 4.42500 2.55477 18.72000
346 1 4.42500 4.25796 21.06000
347 1 4.42500 2.55477 23.40000
348 1 4.42500 4.25796 25.74000
349 1 4.42500 2.55477 28.08000
350 1 4.42500 4.25796 30.42000
351 1 4.42500 2.55477 32.76000
352 1 4.42500 4.25796 35.10000
353 1 2.95000 5.10955 0.00000
354 1 2.95000 6.81273 2.34000
355 1 2.95000 5.10955 4.68000
356 1 2.95000 6.81273 7.02000
357 1 2.95000 5.10955 9.36000
358 1 2.95000 6.81273 11.70000
359 1 2.95000 5.10955 14.04000
360 1 2.95000 6.81273 16.38000
361 1 2.95000 5.10955 18.72000
362 1 2.95000 6.81273 21.06000
363 1 2.95000 5.10955 23.40000
364 1 2.95000 6.81273 25.74000
365 1 2.95000 5.10955 28.08000
366 1 2.95000 6.81273 30.42000
367 1 2.95000 5.10955 32.76000
368 1 2.95000 6.81273 35.10000
369 1 1.47500 7.66432 0.00000
370 1 1.47500 9.36751 2.34000
371 1 1.47500 7.66432 4.68000
372 1 1.47500 9.36751 7.02000
373 1 1.47500 7.66432 9.36000
374 1 1.47500 9.36751 11.70000
375 1 1.47500 7.66432 14.04000
376 1 1.47500 9.36751 16.38000
377 1 1.47500 7.66432 18.72000
378 1 1.47500 9.36751 21.06000
379 1 1.47500 7.66432 23.40000
380 1 1.47500 9.36751 25.74000
381 1 1.47500 7.66432 28.08000
382 1 1.47500 9.36751 30.42000
383 1 1.47500 7.66432 32.76000
384 1 1.47500 9.36751 35.10000
385 1 0.00000 10.21910 0.00000
386 1 0.00000 11.92228 2.34000
387 1 0.00000 10.21910 4.68000
388 1 0.00000 11.92228 7.02000
389 1 0.00000 10.21910 9.36000
390 1 0.00000 11.92228 11.70000
391 1 0.00000 10.21910 14.04000
392 1 0.00000 11.92228 16.38000
393 1 0.00000 10.21910 18.72000
394 1 0.00000 11.92228 21.06000
395 1 0.00000 10.21910 23.40000
396 1 0.00000 11.92228 25.74000
397 1 0.00000 10.21910 28.08000
398 1 0.00000 11.92228 30.42000
399 1 0.00000 10.21910 32.76000
400 1 0.00000 11.92228 35.10000
401 1 -1.47500 12.77387 0.00000
402 1 -1.47500 14.47706 2.34000
403 1 -1.47500 12.77387 4.68000
404 1 -1.47500 14.47706 7.02000
405 1 -1.47500 12.77387 9.36000
406 1 -1.47500 14.47706 11.70000
407 1 -1.47500 12.77387 14.04000
408 1 -1.47500 14.47706 16.38000
409 1 -1.47500 12.77387 18.72000
410 1 -1.47500 14.47706 21.06000
411 1 -1.47500 12.77387 23.40000
412 1 -1.47500 14.47706 25.74000
413 1 -1.47500 12.77387 28.08000
414 1 -1.47500 14.47706 30.42000
415 1 -1.47500 12.77387 32.76000
416 1 -1.47500 14.47706 35.10000
417 1 -2.95000 15.32865 0.00000
418 1 -2.95000 17.03183 2.34000
419 1 -2.95000 15.32865 4.68000
420 1 -2.95000 17.03183 7.02000
421 1 -2.95000 15.32865 9.36000
422 1 -2.95000 17.03183 11.70000
423 1 -2.95000 15.32865 14.04000
424 1 -2.95000 17.03183 16.38000
425 1 -2.95000 15.32865 18.72000
426 1 -2.95000 17.03183 21.06000
427 1 -2.95000 15.32865 23.40000
428 1 -2.95000 17.03183 25.74000
429 1 -2.95000 15.32865 28.08000
430 1 -2.95000 17.03183 30.42000
431 1 -2.95000 15.32865 32.76000
432 1 -2.95000 17.03183 35.10000
433 1 -4.42500 17.88342 0.00000
434 1 -4.42500 19.58661 2.34000
435 1 -4.42500 17.88342 4.68000
436 1 -4.42500 19.58661 7.02000
437 1 -4.42500 17.88342 9.36000
438 1 -4.42500 19.58661 11.70000
439 1 -4.42500 17.88342 14.04000
440 1 -4.42500 19.58661 16.38000
441 1 -4.42500 17.88342 18.72000
442 1 -4.42500 19.58661 21.06000
443 1 -4.42500 17.88342 23.40000
444 1 -4.42500 19.58661 25.74000
445 1 -4.42500 17.88342 28.08000
446 1 -4.42500 19.58661 30.42000
447 1 -4.42500 17.88342 32.76000
448 1 -4.42500 19.58661 35.10000
449 1 -5.90000 20.43820 0.00000
450 1 -5.90000 22.14138 2.34000
451 1 -5.90000 20.43820 4.68000
452 1 -5.90000 22.14138 7.02000
453 1 -5.90000 20.43820 9.36000
454 1 -5.90000 22.14138 11.70000
455 1 -5.90000 20.43820 14.04000
456 1 -5.90000 22.14138 16.38000
457 1 -5.90000 20.43820 18.72000
458 1 -5.90000 22.14138 21.06000
459 1 -5.90000 20.43820 23.40000
460 1 -5.90000 22.14138 25.74000
461 1 -5.90000 20.43820 28.08000
462 1 -5.90000 22.14138 30.42000
463 1 -5.90000 20.43820 32.76000
464 1 -5.90000 22.14138 35.10000
465 1 -7.37500 22.99297 0.00000
466 1 -7.37500 24.69616 2.34000
467 1 -7.37500 22.99297 4.68000
468 1 -7.37500 24.69616 7.02000
469 1 -7.37500 22.99297 9.36000
470 1 -7.37500 24.69616 11.70000
471 1 -7.37500 22.99297 14.04000
472 1 -7.37500 24.69616 16.38000
473 1 -7.37500 22.99297 18.72000
474 1 -7.37500 24.69616 21.06000
475 1 -7.37500 22.99297 23.40000
476 1 -7.37500 24.69616 25.74000
477 1 -7.37500 22.99297 28.08000
478 1 -7.37500 24.69616 30.42000
479 1 -7.37500 22.99297 32.76000
480 1 -7.37500 24.69616 35.10000
481 1 8.85000 0.00000 0.00000
482 1 8.85000 1.70318 2.34000
483 1 8.85000 0.00000 4.68000
484 1 8.85000 1.70318 7.02000
485 1 8.85000 0.00000 9.36000
486 1 8.85000 1.70318 11.70000
487 1 8.85000 0.00000 14.04000
488 1 8.85000 1.70318 16.38000
489 1 8.85000 0.00000 18.72000
490 1 8.85000 1.70318 21.06000
491 1 8.85000 0.00000 23.40000
492 1 8.85000 1.70318 25.74000
493 1 8.85000 0.00000 28.08000
494 1 8.85000 1.70318 30.42000
495 1 8.85000 0.00000 32.76000
496 1 8.85000 1.70318 35.10000
497 1 7.37500 2.55477 0.00000
498 1 7.37500 4.25796 2.34000
499 1 7.37500 2.55477 4.68000
500 1 7.37500 4.25796 7.02000
501 1 7.37500 2.55477 9.36000
502 1 7.37500 4.25796 11.70000
503 1 7.37500 2.55477 14.04000
504 1 7.37500 4.25796 16.38000
505 1 7.37500 2.55477 18.72000
506 1 7.37500 4.25796 21.06000
507 1 7.37500 2.55477 23.40000
508 1 7.37500 4.25796 25.74000
509 1 7.37500 2.55477 28.08000
510 1 7.37500 4.25796 30.42000
511 1 7.37500 2.55477 32.76000
512 1 7.37500 4.25796 35.10000
513 1 5.90000 5.10955 0.00000
514 1 5.90000 6.81273 2.34000
515 1 5.90000 5.10955 4.68000
516 1 5.90000 6.81273 7.02000
517 1 5.90000 5.10955 9.36000
518 1 5.90000 6.81273 11.70000
519 1 5.90000 5.10955 14.04000
520 1 5.90000 6.81273 16.38000
521 1 5.90000 5.10955 18.72000
522 1 5.90000 6.81273 21.06000
523 1 5.90000 5.10955 23.40000
524 1 5.90000 6.81273 25.74000
525 1 5.90000 5.10955 28.08000
526 1 5.90000 6.81273 30.42000
527 1 5.90000 5.10955 32.76000
528 1 5.90000 6.81273 35.10000
529 1 4.42500 7.66432 0.00000
530 1 4.42500 9.36751 2.34000
531 1 4.42500 7.66432 4.68000
532 1 4.42500 9.36751 7.02000
533 1 4.42500 7.66432 9.36000
534 1 4.42500 9.36751 11.70000
535 1 4.42500 7.66432 14.04000
536 1 4.42500 9.36751 16.38000
537 1 4.42500 7.66432 18.72000
538 1 4.42500 9.36751 21.06000
539 1 4.42500 7.66432 23.40000
540 1 4.42500 9.36751 25.74000
541 1 4.42500 7.66432 28.08000
542 1 4.42500 9.36751 30.42000
543 1 4.42500 7.66432 32.76000
544 1 4.42500 9.36751 35.10000
545 1 2.95000 10.21910 0.00000
546 1 2.95000 11.92228 2.34000
547 1 2.95000 10.21910 4.68000
548 1 2.95000 11.92228 7.02000
549 1 2.95000 10.21910 9.36000
550 1 2.95000 11.92228 11.70000
551 1 2.95000 10.21910 14.04000
552 1 2.95000 11.92228 16.38000
553 1 2.95000 10.21910 18.72000
554 1 2.95000 11.92228 21.06000
555 1 2.95000 10.21910 23.40000
556 1 2.95000 11.92228 25.74000
557 1 2.95000 10.21910 28.08000
558 1 2.95000 11.92228 30.42000
559 1 2.95000 10.21910 32.76000
560 1 2.95000 11.92228 35.10000
561 1 1.47500 12.77387 0.00000
562 1 1.47500 14.47706 2.34000
563 1 1.47500 12.77387 4.68000
564 1 1.47500 14.47706 7.02000
565 1 1.47500 12.77387 9.36000
566 1 1.47500 14.47706 11.70000
567 1 1.47500 12.77387 14.04000
568 1 1.47500 14.47706 16.38000
569 1 1.47500 12.77387 18.72000
570 1 1.47500 14.47706 21.06000
571 1 1.47500 12.77387 23.40000
572 1 1.47500 14.47706 25.74000
573 1 1.47500 12.77387 28.08000
574 1 1.47500 14.47706 30.42000
575 1 1.47500 12.77387 32.76000
576 1 1.47500 14.47706 35.10000
577 1 0.00000 15.32865 0.00000
578 1 0.00000 17.03183 2.34000
579 1 0.00000 15.32865 4.68000
580 1 0.00000 17.03183 7.02000
581 1 0.00000 15.32865 9.36000
582 1 0.00000 17.03183 11.70000
583 1 0.00000 15.32865 14.04000
584 1 0.00000 17.03183 16.38000
585 1 0.00000 15.32865 18.72000
586 1 0.00000 17.03183 21.06000
587 1 0.00000 15.32865 23.40000
588 1 0.00000 17.03183 25.74000
589 1 0.00000 15.32865 28.08000
590 1 0.00000 17.03183 30.42000
591 1 0.00000 15.32865 32.76000
592 1 0.00000 17.03183 35.10000
593 1 -1.47500 17.88342 0.00000
594 1 -1.47500 19.58661 2.34000
595 1 -1.47500 17.88342 4.68000
596 1 -1.47500 19.58661 7.02000
597 1 -1.47500 17.88342 9.36000
598 1 -1.47500 19.58661 11.70000
599 1 -1.47500 17.88342 14.04000
600 1 -1.47500 19.58661 16.38000
601 1 -1.47500 17.88342 18.72000
602 1 -1.47500 19.58661 21.06000
603 1 -1.47500 17.88342 23.40000
604 1 -1.47500 19.58661 25.74000
605 1 -1.47500 17.88342 28.08000
606 1 -1.47500 19.58661 30.42000
607 1 -1.47500 17.88342 32.76000
608 1 -1.47500 19.58661 35.10000
609 1 -2.95000 20.43820 0.00000
610 1 -2.95000 22.14138 2.34000
611 1 -2.95000 20.43820 4.68000
612 1 -2.95000 22.14138 7.02000
613 1 -2.95000 20.43820 9.36000
614 1 -2.95000 22.14138 11.70000
615 1 -2.95000 20.43820 14.04000
616 1 -2.95000 22.14138 16.38000
617 1 -2.95000 20.43820 18.72000
618 1 -2.95000 22.14138 21.06000
619 1 -2.95000 20.43820 23.40000
620 1 -2.95000 22.14138 25.74000
621 1 -2.95000 20.43820 28.08000
622 1 -2.95000 22.14138 30.42000
623 1 -2.95000 20.43820 32.76000
624 1 -2.95000 22.14138 35.10000
625 1 -4.42500 22.99297 0.00000
626 1 -4.42500 24.69616 2.34000
627 1 -4.42500 22.99297 4.68000
628 1 -4.42500 24.69616 7.02000
629 1 -4.42500 22.99297 9.36000
630 1 -4.42500 24.69616 11.70000
631 1 -4.42500 22.99297 14.04000
632 1 -4.42500 24.69616 16.38000
633 1 -4.42500 22.99297 18.72000
634 1 -4.42500 24.69616 21.06000
635 1 -4.42500 22.99297 23.40000
636 1 -4.42500 24.69616 25.74000
637 1 -4.42500 22.99297 28.08000
638 1 -4.42500 24.69616 30.42000
639 1 -4.42500 22.99297 32.76000
640 1 -4.42500 24.69616 35.10000
641 1 11.80000 0.00000 0.00000
642 1 11.80000 1.70318 2.34000
643 1 11.80000 0.00000 4.68000
644 1 11.80000 1.70318 7.02000
645 1 11.80000 0.00000 9.36000
646 1 11.80000 1.70318 11.70000
647 1 11.80000 0.00000 14.04000
648 1 11.80000 1.70318 16.38000
649 1 11.80000 0.00000 18.72000
650 1 11.80000 1.70318 21.06000
651 1 11.80000 0.00000 23.40000
652 1 11.80000 1.70318 25.74000
653 1 11.80000 0.00000 28.08000
654 1 11.80000 1.70318 30.42000
655 1 11.80000 0.00000 32.76000
656 1 11.80000 1.70318 35.10000
657 1 10.32500 2.55477 0.00000
658 1 10.32500 4.25796 2.34000
659 1 10.32500 2.55477 4.68000
660 1 10.32500 4.25796 7.02000
661 1 10.32500 2.55477 9.36000
662 1 10.32500 4.25796 11.70000
663 1 10.32500 2.55477 14.04000
664 1 10.32500 4.25796 16.38000
665 1 10.32500 2.55477 18.72000
666 1 10.32500 4.25796 21.06000
667 1 10.32500 2.55477 23.40000
668 1 10.32500 4.25796 25.74000
669 1 10.32500 2.55477 28.08000
670 1 10.32500 4.25796 30.42000
671 1 10.32500 2.55477 32.76000
672 1 10.32500 4.25796 35.10000
673 1 8.85000 5.10955 0.00000
674 1 8.85000 6.81273 2.34000
675 1 8.85000 5.10955 4.68000
676 1 8.85000 6.81273 7.02000
677 1 8.85000 5.10955 9.36000
678 1 8.85000 6.81273 11.70000
679 1 8.85000 5.10955 14.04000
680 1 8.85000 6.81273 16.38000
681 1 8.85000 5.10955 18.72000
682 1 8.85000 6.81273 21.06000
683 1 8.85000 5.10955 23.40000
684 1 8.85000 6.81273 25.74000
685 1 8.85000 5.10955 28.08000
686 1 8.85000 6.81273 30.42000
687 1 8.85000 5.10955 32.76000
688 1 8.85000 6.81273 35.10000
689 1 7.37500 7.66432 0.00000
690 1 7.37500 9.36751 2.34000
691 1 7.37500 7.66432 4.68000
692 1 7.37500 9.36751 7.02000
693 1 7.37500 7.66432 9.36000
694 1 7.37500 9.36751 11.70000
695 1 7.37500 7.66432 14.04000
696 1 7.37500 9.36751 16.38000
697 1 7.37500 7.66432 18.72000
698 1 7.37500 9.36751 21.06000
699 1 7.37500 7.66432 23.40000
700 1 7.37500 9.36751 25.74000
701 1 7.37500 7.66432 28.08000
702 1 7.37500 9.36751 30.42000
703 1 7.37500 7.66432 32.76000
704 1 7.37500 9.36751 35.10000
705 1 5.90000 10.21910 0.00000
706 1 5.90000 11.92228 2.34000
707 1 5.90000 10.21910 4.68000
708 1 5.90000 11.92228 7.02000
709 1 5.90000 10.21910 9.36000
710 1 5.90000 11.92228 11.70000
711 1 5.90000 10.21910 14.04000
712 1 5.90000 11.92228 16.38000
713 1 5.90000 10.21910 18.72000
714 1 5.90000 11.92228 21.06000
715 1 5.90000 10.21910 23.40000
716 1 5.90000 11.92228 25.74000
717 1 5.90000 10.21910 28.08000
718 1 5.90000 11.92228 30.42000
719 1 5.90000 10.21910 32.76000
720 1 5.90000 11.92228 35.10000
721 1 4.42500 12.77387 0.00000
722 1 4.42500 14.47706 2.34000
723 1 4.42500 12.77387 4.68000
724 1 4.42500 14.47706 7.02000
725 1 4.42500 12.77387 9.36000
726 1 4.42500 14.47706 11.70000
727 1 4.42500 12.77387 14.04000
728 1 4.42500 14.47706 16.38000
729 1 4.42500 12.77387 18.72000
730 1 4.42500 14.47706 21.06000
731 1 4.42500 12.77387 23.40000
732 1 4.42500 14.47706 25.74000
733 1 4.42500 12.77387 28.08000
734 1 4.42500 14.47706 30.42000
735 1 4.42500 12.77387 32.76000
736 1 4.42500 14.47706 35.10000
737 1 2.95000 15.32865 0.00000
738 1 2.95000 17.03183 2.34000
739 1 2.95000 15.32865 4.68000
740 1 2.95000 17.03183 7.02000
741 1 2.95000 15.32865 9.36000
742 1 2.95000 17.03183 11.70000
743 1 2.95000 15.32865 14.04000
744 1 2.95000 17.03183 16.38000
745 1 2.95000 15.32865 18.72000
746 1 2.95000 17.03183 21.06000
747 1 2.95000 15.32865 23.40000
748 1 2.95000 17.03183 25.74000
749 1 2.95000 15.32865 28.08000
750 1 2.95000 17.03183 30.42000
751 1 2.95000 15.32865 32.76000
752 1 2.95000 17.03183 35.10000
753 1 1.47500 17.88342 0.00000
754 1 1.47500 19.58661 2.34000
755 1 1.47500 17.88342 4.68000
756 1 1.47500 19.58661 7.02000
757 1 1.47500 17.88342 9.36000
758 1 1.47500 19.58661 11.70000
759 1 1.47500 17.88342 14.04000
760 1 1.47500 19.58661 16.38000
761 1 1.47500 17.88342 18.72000
762 1 1.47500 19.58661 21.06000
763 1 1.47500 17.88342 23.40000
764 1 1.47500 19.58661 25.74000
765 1 1.47500 17.88342 28.08000
766 1 1.47500 19.58661 30.42000
767 1 1.47500 17.88342 32.76000
768 1 1.47500 19.58661 35.10000
769 1 0.00000 20.43820 0.00000
770 1 0.00000 22.14138 2.34000
771 1 0.00000 20.43820 4.68000
772 1 0.00000 22.14138 7.02000
773 1 0.00000 20.43820 9.36000
774 1 0.00000 22.14138 11.70000
775 1 0.00000 20.43820 14.04000
776 1 0.00000 22.14138 16.38000
777 1 0.00000 20.43820 18.72000
778 1 0.00000 22.14138 21.06000
779 1 0.00000 20.43820 23.40000
780 1 0.00000 22.14138 25.74000
781 1 0.00000 20.43820 28.08000
782 1 0.00000 22.14138 30.42000
783 1 0.00000 20.43820 32.76000
784 1 0.00000 22.14138 35.10000
785 1 -1.47500 22.99297 0.00000
786 1 -1.47500 24.69616 2.34000
787 1 -1.47500 22.99297 4.68000
788 1 -1.47500 24.69616 7.02000
789 1 -1.47500 22.99297 9.36000
790 1 -1.47500 24.69616 11.70000
791 1 -1.47500 22.99297 14.04000
792 1 -1.47500 24.69616 16.38000
793 1 -1.47500 22.99297 18.72000
794 1 -1.47500 24.69616 21.06000
795 1 -1.47500 22.99297 23.40000
796 1 -1.47500 24.69616 25.74000
797 1 -1.47500 22.99297 28.08000
798 1 -1.47500 24.69616 30.42000
799 1 -1.47500 22.99297 32.76000
800 1 -1.47500 24.69616 35.10000
801 1 14.75000 0.00000 0.00000
802 1 14.75000 1.70318 2.34000
803 1 14.75000 0.00000 4.68000
804 1 14.75000 1.70318 7.02000
805 1 14.75000 0.00000 9.36000
806 1 14.75000 1.70318 11.70000
807 1 14.75000 0.00000 14.04000
808 1 14.75000 1.70318 16.38000
809 1 14.75000 0.00000 18.72000
810 1 14.75000 1.70318 21.06000
811 1 14.75000 0.00000 23.40000
812 1 14.75000 1.70318 25.74000
813 1 14.75000 0.00000 28.08000
814 1 14.75000 1.70318 30.42000
815 1 14.75000 0.00000 32.76000
816 1 14.75000 1.70318 35.10000
817 1 13.27500 2.55477 0.00000
818 1 13.27500 4.25796 2.34000
819 1 13.27500 2.55477 4.68000
820 1 13.27500 4.25796 7.02000
821 1 13.27500 2.55477 9.36000
822 1 13.27500 4.25796 11.70000
823 1 13.27500 2.55477 14.04000
824 1 13.27500 4.25796 16.38000
825 1 13.27500 2.55477 18.72000
826 1 13.27500 4.25796 21.06000
827 1 13.27500 2.55477 23.40000
828 1 13.27500 4.25796 25.74000
829 1 13.27500 2.55477 28.08000
830 1 13.27500 4.25796 30.42000
831 1 13.27500 2.55477 32.76000
832 1 13.27500 4.25796 35.10000
833 1 11.80000 5.10955 0.00000
834 1 11.80000 6.81273 2.34000
835 1 11.80000 5.10955 4.68000
836 1 11.80000 6.81273 7.02000
837 1 11.80000 5.10955 9.36000
838 1 11.80000 6.81273 11.70000
839 1 11.80000 5.10955 14.04000
840 1 11.80000 6.81273 16.38000
841 1 11.80000 5.10955 18.72000
842 1 11.80000 6.81273 21.06000
843 1 11.80000 5.10955 23.40000
844 1 11.80000 6.81273 25.74000
845 1 11.80000 5.10955 28.08000
846 1 11.80000 6.81273 30.42000
847 1 11.80000 5.10955 32.76000
848 1 11.80000 6.81273 35.10000
849 1 10.32500 7.66432 0.00000
850 1 10.32500 9.36751 2.34000
851 1 10.32500 7.66432 4.68000
852 1 10.32500 9.36751 7.02000
853 1 10.32500 7.66432 9.36000
854 1 10.32500 9.36751 11.70000
855 1 10.32500 7.66432 14.04000
856 1 10.32500 9.36751 16.38000
857 1 10.32500 7.66432 18.72000
858 1 10.32500 9.36751 21.06000
859 1 10.32500 7.66432 23.40000
860 1 10.32500 9.36751 25.74000
861 1 10.32500 7.66432 28.08000
862 1 10.32500 9.36751 30.42000
863 1 10.32500 7.66432 32.76000
864 1 10.32500 9.36751 35.10000
865 1 8.85000 10.21910 0.00000
866 1 8.85000 11.92228 2.34000
867 1 8.85000 10.21910 4.68000
868 1 8.85000 11.92228 7.02000
869 1 8.85000 10.21910 9.36000
870 1 8.85000 11.92228 11.70000
871 1 8.85000 10.21910 14.04000
872 1 8.85000 11.92228 16.38000
873 1 8.85000 10.21910 18.72000
874 1 8.85000 11.92228 21.06000
875 1 8.85000 10.21910 23.40000
876 1 8.85000 11.92228 25.74000
877 1 8.85000 10.21910 28.08000
878 1 8.85000 11.92228 30.42000
879 1 8.85000 10.21910 32.76000
880 1 8.85000 11.92228 35.10000
881 1 7.37500 12.77387 0.00000
882 1 7.37500 14.47706 2.34000
883 1 7.37500 12.77387 4.68000
884 1 7.37500 14.47706 7.02000
885 1 7.37500 12.77387 9.36000
886 1 7.37500 14.47706 11.70000
887 1 7.37500 12.77387 14.04000
888 1 7.37500 14.47706 16.38000
889 1 7.37500 12.77387 18.72000
890 1 7.37500 14.47706 21.06000
891 1 7.37500 12.77387 23.40000
892 1 7.37500 14.47706 25.74000
893 1 7.37500 12.77387 28.08000
894 1 7.37500 14.47706 30.42000
895 1 7.37500 12.77387 32.76000
896 1 7.37500 14.47706 35.10000
897 1 5.90000 15.32865 0.00000
898 1 5.90000 17.03183 2.34000
899 1 5.90000 15.32865 4.68000
900 1 5.90000 17.03183 7.02000
901 1 5.90000 15.32865 9.36000
902 1 5.90000 17.03183 11.70000
903 1 5.90000 15.32865 14.04000
904 1 5.90000 17.03183 16.38000
905 1 5.90000 15.32865 18.72000
906 1 5.90000 17.03183 21.06000
907 1 5.90000 15.32865 23.40000
908 1 5.90000 17.03183 25.74000
909 1 5.90000 15.32865 28.08000
910 1 5.90000 17.03183 30.42000
911 1 5.90000 15.32865 32.76000
912 1 5.90000 17.03183 35.10000
913 1 4.42500 17.88342 0.00000
914 1 4.42500 19.58661 2.34000
915 1 4.42500 17.88342 4.68000
916 1 4.42500 19.58661 7.02000
917 1 4.42500 17.88342 9.36000
918 1 4.42500 19.58661 11.70000
919 1 4.42500 17.88342 14.04000
920 1 4.42500 19.58661 16.38000
921 1 4.42500 17.88342 18.72000
922 1 4.42500 19.58661 21.06000
923 1 4.42500 17.88342 23.40000
924 1 4.42500 19.58661 25.74000
925 1 4.42500 17.88342 28.08000
926 1 4.42500 19.58661 30.42000
927 1 4.42500 17.88342 32.76000
928 1 4.42500 19.58661 35.10000
929 1 2.95000 20.43820 0.00000
930 1 2.95000 22.14138 2.34000
931 1 2.95000 20.43820 4.68000
932 1 2.95000 22.14138 7.02000
933 1 2.95000 20.43820 9.36000
934 1 2.95000 22.14138 11.70000
935 1 2.95000 20.43820 14.04000
936 1 2.95000 22.14138 16.38000
937 1 2.95000 20.43820 18.72000
938 1 2.95000 22.14138 21.06000
939 1 2.95000 20.43820 23.40000
940 1 2.95000 22.14138 25.74000