ITEM: TIMESTEP
0
ITEM: NUMBER OF ATOMS
864
ITEM: BOX BOUNDS pp pp pp
0.0 24.5160
0.0 24.5160
0.0 24.5160
ITEM: ATOMS id type x y z error strain stiffness
1 47 -0.2665 0.1850 0.2570 38.1242 0.0000 43.3575
2 47 1.4360 1.3487 -0.0732 39.0263 0.0000 42.3849
3 47 2.2035 0.0014 1.9036 31.2096 0.0000 38.8179
4 47 -0.3513 1.9569 2.0123 32.0490 0.0000 33.5839
5 47 0.5092 0.1119 4.0249 41.4247 0.0000 39.3829
6 47 1.8369 2.2868 3.8405 29.8041 0.0000 42.4123
7 47 1.9285 -0.1866 6.2509 36.9853 0.0000 34.9860
8 47 -0.5361 2.3093 5.9980 36.6307 0.0000 35.4960
9 47 0.6642 0.4097 8.0072 30.4777 0.0000 33.3435
10 47 1.7286 2.5327 8.1695 32.3019 0.0000 37.8837
11 47 1.6250 0.1062 9.8332 36.7760 0.0000 40.7941
12 47 0.1647 2.1943 10.2040 40.0617 0.0000 36.7273
13 47 -0.0083 0.1417 12.1175 38.0380 0.0000 35.2272
14 47 2.0032 2.0221 12.6213 42.7614 0.0000 35.1327
15 47 2.3468 0.0874 14.5184 42.1553 0.0000 44.4667
16 47 -0.0692 1.9082 14.4330 40.8380 0.0000 36.1813
17 47 0.6277 -0.3970 16.0536 32.5443 0.0000 38.3436
18 47 1.8600 1.7281 16.2685 30.4030 0.0000 35.5917
19 47 2.2176 -0.0824 18.2505 30.0276 0.0000 33.7570
20 47 -0.3535 2.0731 18.0527 32.8806 0.0000 38.1021
21 47 -0.4436 -0.0417 20.3511 40.1428 0.0000 42.5136
22 47 1.9808 1.7303 20.5301 32.6413 0.0000 41.5236
23 47 2.2077 -0.2522 22.9903 30.4767 0.0000 36.7963
24 47 -0.5256 2.3549 22.1863 31.2051 0.0000 41.1540
25 47 -0.1394 4.2127 0.2203 38.1046 0.0000 43.7099
26 47 2.4065 6.2114 -0.1732 34.8066 0.0000 38.7654
27 47 1.5847 3.5925 2.0548 41.8118 0.0000 44.5314
28 47 0.1795 6.1132 1.9195 28.6657 0.0000 39.3224
29 47 -0.2013 4.2893 4.9676 42.2205 0.0000 36.2316
30 47 1.5069 6.5139 4.4965 35.9744 0.0000 43.6605
31 47 2.2308 4.2673 6.2366 36.3939 0.0000 35.9861
32 47 0.3789 6.0443 5.9886 38.7073 0.0000 43.1273
33 47 0.1345 3.5798 8.2218 41.0024 0.0000 33.6370
34 47 1.4949 5.5779 8.6056 41.2899 0.0000 36.8495
35 47 2.1255 4.4929 10.3145 30.0435 0.0000 40.2345
36 47 -0.1078 6.0142 9.8999 35.9234 0.0000 41.6376
37 47 0.1515 4.3052 12.2910 36.2265 0.0000 44.6013
38 47 1.9520 6.3863 12.4310 30.3418 0.0000 38.9503
39 47 1.2462 4.2135 14.2765 35.7800 0.0000 37.6808
40 47 -0.7471 6.2935 14.4336 29.8180 0.0000 41.8078
41 47 -0.2835 3.5508 16.6186 35.5777 0.0000 41.8809
42 47 1.8154 6.5529 16.2033 40.6560 0.0000 36.2990
43 47 2.0871 3.9803 18.1251 39.8603 0.0000 39.5603
44 47 0.3334 6.2556 18.4124 34.3098 0.0000 38.0187
45 47 -0.4250 3.6398 20.5569 35.8855 0.0000 39.4664
46 47 2.2180 5.6314 21.0749 41.3007 0.0000 34.4342
47 47 1.6693 3.8391 22.5442 34.5624 0.0000 39.6734
48 47 -0.2383 6.4302 23.0524 33.0707 0.0000 37.8592
49 47 0.1034 8.3985 0.1303 33.4987 0.0000 40.0467
50 47 2.2242 9.9941 0.2403 33.3372 0.0000 42.7170
51 47 2.1669 8.9574 1.5034 35.2081 0.0000 38.3594
52 47 0.1175 10.4455 2.3193 33.3213 0.0000 36.9068
53 47 -0.1712 8.6173 3.9212 40.9768 0.0000 43.5888
54 47 1.8596 10.7334 4.3330 33.3860 0.0000 41.2072
55 47 1.3206 7.6211 6.5965 36.6198 0.0000 41.0653
56 47 0.0022 10.1427 5.8274 33.3282 0.0000 33.4075
57 47 0.5410 7.9941 8.5177 42.5368 0.0000 41.8287
58 47 2.1062 9.9545 8.1991 42.6869 0.0000 43.6908
59 47 2.0289 8.3582 10.0932 30.0537 0.0000 34.0407
60 47 0.6082 9.7610 10.6070 39.6187 0.0000 41.7252
61 47 -0.3573 7.8109 12.4477 29.4690 0.0000 42.5752
62 47 1.8009 10.0289 12.4890 29.3212 0.0000 42.3855
63 47 1.8413 8.4924 14.6733 30.2162 0.0000 36.5839
64 47 -0.5625 10.2286 14.4851 29.6158 0.0000 44.0020
65 47 0.5758 7.3831 16.4455 32.3090 0.0000 37.0818
66 47 2.0922 10.7260 15.8281 40.8237 0.0000 38.1326
67 47 2.2350 7.5082 18.4915 35.1431 0.0000 37.0587
68 47 -0.6178 10.1457 17.9569 34.6722 0.0000 34.2859
69 47 0.0701 7.9271 20.0024 42.7729 0.0000 39.3615
70 47 2.4523 10.0594 20.0670 29.6949 0.0000 35.5932
71 47 2.2634 8.4414 22.8163 32.8261 0.0000 37.4679
72 47 -0.3887 10.3538 22.5983 38.0992 0.0000 34.2412
73 47 0.4099 11.8702 -0.1557 40.6984 0.0000 40.8130
74 47 2.3720 13.5594 0.2980 31.5385 0.0000 39.6151
75 47 1.9382 11.8489 1.8854 39.5669 0.0000 39.3114
76 47 -0.1397 13.9712 2.2927 35.1193 0.0000 33.8225
77 47 0.2841 12.2255 4.3203 41.9534 0.0000 34.5478
78 47 1.9382 14.1344 4.4429 30.3701 0.0000 35.9144
79 47 1.9361 12.5631 5.9595 28.9997 0.0000 38.2587
80 47 0.3255 14.3012 6.6773 29.5858 0.0000 36.2236
81 47 -0.5278 11.7605 8.2066 42.6920 0.0000 42.6270
82 47 2.5646 14.2382 8.2476 39.8899 0.0000 41.8853
83 47 2.4027 12.2513 10.4915 40.7625 0.0000 44.7974
84 47 -0.1507 14.7673 10.4283 41.2441 0.0000 42.4129
85 47 -0.2347 12.0113 11.9973 40.9745 0.0000 36.7723
86 47 1.5480 14.9931 12.3826 41.2445 0.0000 35.6162
87 47 1.5726 11.9696 14.2749 29.8351 0.0000 39.8949
88 47 0.6251 14.6837 13.8931 41.5756 0.0000 41.1323
89 47 0.0289 12.2542 16.1895 29.3792 0.0000 33.8647
90 47 1.9724 14.5647 15.8373 35.1666 0.0000 43.4733
91 47 1.6861 12.3826 18.7244 42.5698 0.0000 43.8908
92 47 0.1969 14.3844 18.3805 37.8731 0.0000 34.8334
93 47 0.0002 12.1242 20.4216 39.9346 0.0000 41.9787
94 47 1.9896 14.0881 20.4132 40.3574 0.0000 41.2020
95 47 1.9892 11.5751 22.5049 38.5617 0.0000 37.6560
96 47 -0.0230 14.9145 22.4402 35.0155 0.0000 41.4407
97 47 0.1254 16.8965 0.0997 29.5545 0.0000 42.5552
98 47 2.1172 18.3331 -0.0951 35.9448 0.0000 34.5971
99 47 2.4407 16.4198 1.7385 36.0004 0.0000 33.8442
100 47 -0.0001 18.0338 1.9526 33.0022 0.0000 34.0859
101 47 0.2605 16.0046 4.3634 30.0288 0.0000 38.7943
102 47 1.9777 18.3408 3.6671 31.3752 0.0000 44.3306
103 47 2.0324 16.0259 6.1219 36.7062 0.0000 34.7793
104 47 -0.0952 18.5412 5.8854 32.9004 0.0000 39.0594
105 47 -0.0021 16.7783 8.1011 38.6196 0.0000 37.5613
106 47 1.6589 18.2704 7.9086 40.2522 0.0000 42.7682
107 47 2.4038 16.2199 10.4302 32.8240 0.0000 42.0167
108 47 -0.1500 18.3380 9.8263 32.4076 0.0000 44.2303
109 47 -0.3275 16.4355 12.3509 41.2537 0.0000 44.8300
110 47 2.3985 18.1070 12.4652 37.0553 0.0000 36.5622
111 47 2.0556 16.5314 14.2161 39.2530 0.0000 44.1772
112 47 -0.2281 18.1079 14.0419 30.0322 0.0000 40.3468
113 47 -0.0011 16.3029 16.3474 40.0017 0.0000 41.6964
114 47 2.1122 18.5904 16.0821 42.2924 0.0000 39.3733
115 47 2.2417 16.5054 18.4171 33.7716 0.0000 40.9721
116 47 0.2481 17.9821 19.0118 38.0348 0.0000 43.0548
117 47 -0.2012 16.7746 20.4306 37.0987 0.0000 35.2561
118 47 1.7413 18.6867 20.2909 35.3211 0.0000 40.7187
119 47 1.8330 16.0784 22.2573 36.6600 0.0000 39.6391
120 47 -0.3188 18.1951 22.4052 41.0313 0.0000 41.3254
121 47 0.3749 20.9378 0.0911 35.4891 0.0000 41.0858
122 47 2.0216 21.9622 0.1418 42.2832 0.0000 40.0208
123 47 2.1485 20.3506 2.0196 38.9670 0.0000 37.3191
124 47 0.2548 22.5916 1.9989 34.2679 0.0000 39.3481
125 47 0.0489 20.8683 3.9510 32.4741 0.0000 43.7109
126 47 2.0737 22.4710 3.9083 28.8623 0.0000 37.1622
127 47 2.3951 20.3749 6.0708 41.4355 0.0000 44.4876
128 47 -0.3343 22.1572 5.5601 40.8610 0.0000 43.2064
129 47 -0.1622 20.4765 8.1375 29.6162 0.0000 42.9740
130 47 2.4277 22.2129 8.5013 42.2172 0.0000 40.2065
131 47 1.3914 20.5492 10.6843 32.7232 0.0000 36.9066
132 47 0.4359 22.2071 10.7155 37.4718 0.0000 36.9420
133 47 -0.2686 21.1403 12.1584 39.3462 0.0000 38.0965
134 47 2.0209 22.6295 11.8750 40.5531 0.0000 34.1019
135 47 1.9240 19.7884 14.2710 34.5248 0.0000 40.7414
136 47 -0.3534 22.5396 14.4247 38.9234 0.0000 40.8347
137 47 -0.0506 20.4177 16.0536 42.0435 0.0000 44.2012
138 47 1.8118 22.4129 16.2008 36.1628 0.0000 42.7579
139 47 2.3575 20.2036 18.2306 38.6631 0.0000 40.2555
140 47 -0.0329 22.0722 18.5136 39.7415 0.0000 42.8711
141 47 -0.1177 20.2254 20.4049 40.3777 0.0000 38.9864
142 47 1.9227 22.5244 19.8696 37.7354 0.0000 36.6214
143 47 1.5255 20.6109 22.4265 32.5541 0.0000 43.3235
144 47 -0.1508 22.5855 22.4936 35.7269 0.0000 44.5234
145 47 4.2341 0.9721 -0.1201 35.9838 0.0000 42.5485
146 47 6.1054 1.1727 0.0558 38.7860 0.0000 35.0044
147 47 6.3533 -0.1740 1.8121 30.3819 0.0000 39.3757
148 47 3.9159 2.0024 2.0297 32.5749 0.0000 36.6270
149 47 4.4117 -0.2102 4.3255 36.2733 0.0000 39.0841
150 47 6.0456 2.1231 4.5285 42.3772 0.0000 34.0367
151 47 6.4620 -0.2116 6.2148 32.5592 0.0000 33.8008
152 47 4.0496 2.0563 5.7498 41.3104 0.0000 33.2266
153 47 4.2212 -0.1555 8.1695 31.6634 0.0000 42.9871
154 47 6.0555 2.0064 7.7011 39.1173 0.0000 39.8423
155 47 6.1216 -0.3796 10.1337 37.4606 0.0000 35.5103
156 47 3.9738 2.1595 10.2918 28.7820 0.0000 39.9161
157 47 4.1509 0.3014 12.6706 42.7824 0.0000 44.2728
158 47 5.3008 1.8001 12.3909 38.8344 0.0000 39.1172
159 47 6.5629 0.2714 14.2586 38.1476 0.0000 37.1500
160 47 4.0391 2.6020 13.5292 39.3296 0.0000 35.6284
161 47 3.7310 0.0804 16.1294 40.2273 0.0000 44.0879
162 47 6.4359 1.6408 16.1439 35.4567 0.0000 43.7412
163 47 6.3638 0.0679 18.2734 34.5694 0.0000 34.9997
164 47 4.0279 2.4555 18.7582 41.1462 0.0000 36.4424
165 47 4.1235 0.2539 20.4689 37.3758 0.0000 39.3926
166 47 5.8063 1.8908 19.9881 42.2593 0.0000 39.2810
167 47 6.5010 -0.2697 22.4485 33.3090 0.0000 41.3521
168 47 3.9414 1.7341 22.7125 42.3792 0.0000 37.6928
169 47 4.2440 4.2109 -0.3933 30.2380 0.0000 39.8740
170 47 6.1150 6.0355 0.1520 39.3421 0.0000 43.3148
171 47 6.3352 3.8743 1.9468 30.2882 0.0000 41.8408
172 47 3.4190 6.3481 2.4200 28.7740 0.0000 40.2910
173 47 4.0341 4.0867 4.1096 35.9610 0.0000 35.8276
174 47 6.1106 6.5804 4.1921 31.8074 0.0000 37.7485
175 47 5.8399 3.6460 5.7388 31.4982 0.0000 35.9378
176 47 4.2992 6.2760 6.3781 38.0061 0.0000 38.4329
177 47 4.0590 4.2041 8.1085 39.9707 0.0000 39.1224
178 47 6.1225 6.4439 8.1491 35.5500 0.0000 33.6606
179 47 6.0538 4.2954 10.3950 29.6018 0.0000 33.6290
180 47 4.2178 6.0796 10.4059 37.7276 0.0000 44.0796
181 47 3.9002 3.6362 11.9382 38.3662 0.0000 43.7268
182 47 6.3133 6.4362 12.2110 29.4027 0.0000 33.8588
183 47 6.3016 3.9476 14.5026 39.6627 0.0000 41.5612
184 47 4.0544 6.4658 14.4384 30.0787 0.0000 40.3444
185 47 4.3220 3.3471 16.5135 38.1266 0.0000 40.5806
186 47 6.2455 6.5969 15.9989 36.3946 0.0000 43.6837
187 47 6.4891 4.2675 18.3901 35.3982 0.0000 38.4442
188 47 4.3310 5.6393 17.9927 30.9702 0.0000 38.7685
189 47 4.0112 4.4186 20.3779 32.0942 0.0000 40.9979
190 47 6.3603 6.3014 20.2398 42.3136 0.0000 36.5570
191 47 6.8155 3.6916 22.6857 42.0152 0.0000 42.0148
192 47 3.8195 6.4167 22.0702 35.1128 0.0000 37.4196
193 47 3.9163 8.5929 0.3660 33.6075 0.0000 38.3486
194 47 5.9228 10.3960 0.2842 42.7567 0.0000 38.8257
195 47 6.1366 8.0919 2.2262 35.6967 0.0000 36.3304
196 47 4.4224 10.3571 1.9315 36.4797 0.0000 35.0164
197 47 3.7358 8.1080 4.2616 30.4643 0.0000 41.2062
198 47 6.5144 10.1973 4.2083 35.8704 0.0000 37.3065
199 47 5.7731 8.0776 6.5299 35.6350 0.0000 39.3229
200 47 4.1081 10.2034 6.0281 37.4152 0.0000 43.8219
201 47 4.5813 7.4863 8.2579 33.2967 0.0000 42.0684
202 47 6.2593 10.6284 8.0558 38.8101 0.0000 36.8142
203 47 6.1763 8.4591 9.7028 40.2817 0.0000 42.9594
204 47 4.1850 9.8815 9.7646 42.8854 0.0000 40.5468
205 47 3.9499 8.0784 12.7611 38.3453 0.0000 36.2319
206 47 5.8905 10.2154 12.2517 38.5872 0.0000 38.0637
207 47 6.0811 7.7075 14.1436 39.5161 0.0000 42.4990
208 47 4.2846 9.5328 14.3337 33.6688 0.0000 33.9760
209 47 4.0614 7.6446 16.6606 37.0878 0.0000 41.3967
210 47 6.2666 9.8404 16.5414 30.0331 0.0000 40.5789
211 47 6.1547 8.0743 18.3939 42.8760 0.0000 33.7841
212 47 4.8716 10.1937 18.2742 32.5251 0.0000 35.5229
213 47 4.0712 8.4507 20.1011 39.5797 0.0000 40.1923
214 47 6.0901 10.2075 20.2048 41.2607 0.0000 42.8197
215 47 5.8318 7.9106 22.3168 32.1070 0.0000 36.7118
216 47 4.1673 10.4242 22.3942 40.2529 0.0000 44.4520
217 47 4.3104 11.5891 0.1085 29.5362 0.0000 39.0069
218 47 6.0461 14.4030 0.0111 41.1660 0.0000 41.2502
219 47 6.4078 12.4653 2.1738 36.1946 0.0000 41.5147
220 47 4.0031 14.2236 2.3389 40.3400 0.0000 35.0085
221 47 3.9401 11.3629 4.3372 42.5465 0.0000 44.2735
222 47 6.0623 13.9450 3.7577 32.2059 0.0000 34.1796
223 47 5.9844 12.2040 6.1997 31.2407 0.0000 34.0870
224 47 3.6409 14.4791 6.1700 33.9357 0.0000 38.2837
225 47 4.0998 11.9082 8.1995 32.3640 0.0000 35.1999
226 47 6.2463 14.3406 8.0405 29.2141 0.0000 43.9614
227 47 5.9161 12.3209 10.2577 40.7846 0.0000 44.1399
228 47 4.1519 14.9938 10.1566 32.9069 0.0000 44.7974
229 47 3.5637 12.2392 11.7195 42.0123 0.0000 33.7953
230 47 6.1735 14.8162 12.1298 40.3192 0.0000 36.0116
231 47 5.7016 12.1688 14.1520 35.6649 0.0000 42.8957
232 47 4.1632 14.2587 14.2560 41.3274 0.0000 39.3583
233 47 3.9276 11.3661 16.6270 37.9024 0.0000 39.9592
234 47 6.3775 14.3350 16.5342 30.0778 0.0000 43.0322
235 47 5.8465 12.6224 18.8097 29.9461 0.0000 40.7924
236 47 3.3963 14.7971 18.4466 39.5551 0.0000 43.5690
237 47 4.1487 12.7781 20.1465 35.5760 0.0000 38.7551
238 47 5.3164 14.1703 20.3151 32.8424 0.0000 39.2637
239 47 6.1031 12.1728 22.1874 29.4840 0.0000 43.7307
240 47 4.3236 14.0573 22.2956 41.7451 0.0000 33.9654
241 47 4.3007 16.3306 0.2298 34.7418 0.0000 36.3544
242 47 6.2546 18.9969 -0.3688 41.7505 0.0000 36.3857
243 47 6.3468 15.9439 2.0842 34.8260 0.0000 37.3517
244 47 4.2557 17.9489 1.7276 34.3006 0.0000 35.1295
245 47 4.0760 16.7348 3.9465 29.1576 0.0000 35.0029
246 47 6.0341 18.1965 3.3757 33.5911 0.0000 35.1730
247 47 6.7920 16.3935 6.3786 36.5085 0.0000 37.7566
248 47 3.7761 18.1964 6.5908 40.9831 0.0000 36.6750
249 47 4.1858 16.4308 7.8677 29.6062 0.0000 36.3628
250 47 5.8255 18.2657 8.5974 36.9380 0.0000 41.7627
251 47 6.1368 16.2870 10.5493 33.1120 0.0000 34.5893
252 47 4.2485 18.3969 9.8944 40.1166 0.0000 33.6362
253 47 4.3298 16.3831 12.5954 33.7297 0.0000 40.2366
254 47 6.3029 18.5513 12.0250 39.3505 0.0000 42.3833
255 47 5.5795 16.3852 14.4283 33.7004 0.0000 42.7400
256 47 4.1142 18.5999 14.0889 40.1484 0.0000 37.9703
257 47 4.0557 16.7194 16.5422 39.1660 0.0000 40.7222
258 47 6.0932 18.8416 16.2224 35.0692 0.0000 42.4396
259 47 6.3422 16.1407 18.2319 39.2709 0.0000 40.2206
260 47 4.0353 18.6034 18.3298 34.8389 0.0000 35.0076
261 47 3.8353 16.4061 20.6130 41.9957 0.0000 34.7500
262 47 6.3206 18.4069 19.9568 38.0591 0.0000 42.3257
263 47 6.1139 16.7667 22.6849 34.2813 0.0000 36.8955
264 47 3.5173 18.6303 22.1998 36.0551 0.0000 41.7216
265 47 4.0324 20.2372 -0.0076 29.7162 0.0000 39.1924
266 47 6.1845 22.6924 -0.1252 36.1536 0.0000 42.5756
267 47 5.9244 20.5282 1.8029 37.4744 0.0000 33.6781
268 47 4.0019 22.5419 2.0183 36.9200 0.0000 35.2423
269 47 4.3716 20.3374 4.1359 32.0228 0.0000 33.3104
270 47 6.0585 22.2366 4.4683 41.7669 0.0000 33.9626
271 47 6.4717 20.4254 6.5808 38.5007 0.0000 36.2687
272 47 3.9328 22.5521 5.8945 36.7591 0.0000 40.1487
273 47 3.3070 20.7749 8.4984 42.2561 0.0000 43.4326
274 47 5.6602 22.1242 7.4436 36.9826 0.0000 34.3728
275 47 6.2393 20.1017 10.2889 29.7692 0.0000 43.6153
276 47 3.8448 22.5378 10.3643 39.2489 0.0000 40.0350
277 47 4.3130 20.4237 11.2492 33.6585 0.0000 42.2632
278 47 6.0522 22.7106 12.3357 30.1141 0.0000 44.7932
279 47 6.0913 20.0914 14.6194 31.9365 0.0000 41.6357
280 47 4.0005 22.4897 14.1229 41.9861 0.0000 36.7706
281 47 4.2707 19.9284 16.2105 36.3191 0.0000 37.3415
282 47 6.0754 22.6606 16.1848 36.2401 0.0000 39.3652
283 47 6.1379 20.1525 18.2677 32.0621 0.0000 37.2060
284 47 3.7838 22.4178 18.3051 42.6404 0.0000 41.9335
285 47 4.3208 20.9154 20.7390 40.7082 0.0000 40.2507
286 47 6.3813 22.7832 20.7763 31.8700 0.0000 42.6455
287 47 6.3872 20.0630 22.5900 38.4139 0.0000 40.3966
288 47 4.0781 23.1171 22.4473 39.3941 0.0000 40.2993
289 47 8.5826 -0.1400 -0.1992 42.3683 0.0000 44.6922
290 47 10.5384 1.9778 0.1372 41.5266 0.0000 39.0319
291 47 9.9882 -0.5202 2.2562 37.7151 0.0000 42.3624
292 47 8.3080 2.3752 1.9798 39.2941 0.0000 34.5044
293 47 8.5686 0.5261 4.0524 37.3691 0.0000 42.9499
294 47 9.9202 2.4679 3.5068 32.9059 0.0000 34.3815
295 47 10.3190 0.0431 5.9377 37.3159 0.0000 41.3183
296 47 8.2474 1.9949 6.4446 38.7898 0.0000 43.2841
297 47 8.2653 -0.0110 8.3695 38.7470 0.0000 33.2049
298 47 10.1845 1.8959 8.5182 39.5811 0.0000 36.7737
299 47 10.4699 0.2974 9.8556 35.3433 0.0000 39.7239
300 47 7.9275 1.9606 10.1165 39.5212 0.0000 43.4994
301 47 8.4126 -0.3956 12.8227 32.4235 0.0000 34.8431
302 47 9.9653 2.1930 12.3989 42.1285 0.0000 38.0381
303 47 10.4793 0.4151 14.0892 40.3151 0.0000 38.5374
304 47 8.6975 1.9775 14.3292 33.9303 0.0000 35.4433
305 47 7.8556 0.0541 16.0110 29.5294 0.0000 36.7683
306 47 10.3951 1.9596 16.3768 32.2737 0.0000 37.5893
307 47 10.2697 0.1577 18.0372 29.3986 0.0000 37.2519
308 47 7.6304 1.8062 18.3166 38.2012 0.0000 35.9917
309 47 8.3146 -0.4561 19.9329 30.6566 0.0000 35.8702
310 47 9.9791 1.9573 20.2296 31.6781 0.0000 42.3342
311 47 10.0872 -0.2869 22.5167 34.9090 0.0000 33.2080
312 47 8.6208 2.4566 22.0973 35.6821 0.0000 41.7746
313 47 7.7446 4.0675 0.2675 35.5847 0.0000 43.0651
314 47 10.1086 6.0354 -0.1977 38.2386 0.0000 36.7016
315 47 10.0951 4.3630 1.9663 40.8666 0.0000 33.5270
316 47 8.7386 5.9432 1.9674 36.1620 0.0000 39.1372
317 47 8.2592 4.1236 4.2490 28.8310 0.0000 39.2030
318 47 10.0415 6.7786 4.0933 38.2637 0.0000 36.7299
319 47 10.4902 4.0448 6.1544 29.4979 0.0000 42.3957
320 47 8.3979 6.0700 5.8457 42.3641 0.0000 42.0250
321 47 8.1249 4.1425 8.1644 34.5076 0.0000 41.8201
322 47 10.0250 6.1241 8.6429 33.1349 0.0000 36.9998
323 47 10.2453 4.1002 10.1537 41.0111 0.0000 35.9282
324 47 8.1478 5.6741 10.0469 42.1776 0.0000 43.2329
325 47 7.7784 3.3402 11.9046 33.5883 0.0000 40.8576
326 47 10.3653 6.0588 12.4181 31.2827 0.0000 44.8292
327 47 10.4362 4.1225 13.9911 36.5971 0.0000 42.5358
328 47 8.7004 6.3520 14.2755 31.5491 0.0000 36.4332
329 47 8.1204 3.4314 16.4577 42.2097 0.0000 39.1026
330 47 9.7006 5.8518 16.1555 41.6133 0.0000 37.0283
331 47 10.6563 4.1910 18.9239 33.0995 0.0000 43.9903
332 47 7.8227 6.0305 18.4198 35.3679 0.0000 43.4506
333 47 8.1975 4.8078 20.3794 38.5938 0.0000 33.5274
334 47 10.2033 5.9023 20.7975 36.4514 0.0000 41.9715
335 47 10.6741 4.5042 22.3871 35.4866 0.0000 41.7378
336 47 8.3450 6.5485 22.0050 33.2621 0.0000 42.6431
337 47 8.5176 8.4153 0.1699 29.5515 0.0000 43.1306
338 47 10.2567 10.3787 0.3305 32.9717 0.0000 44.5697
339 47 10.4698 8.1504 1.8415 40.7756 0.0000 33.3817
340 47 7.8965 10.2535 2.0959 35.7459 0.0000 43.6494
341 47 8.3666 8.6679 3.8954 34.2947 0.0000 41.0100
342 47 10.1980 10.6124 4.0352 35.4110 0.0000 42.8065
343 47 10.2776 7.8079 6.5224 40.0774 0.0000 42.9320
344 47 8.0292 9.8119 5.9858 35.8584 0.0000 35.3039
345 47 8.6235 7.9549 7.5734 33.8808 0.0000 38.7671
346 47 9.6958 9.9106 8.3893 29.8531 0.0000 38.1262
347 47 10.0471 8.0963 9.9828 36.9707 0.0000 33.8229
348 47 8.1859 10.6164 10.2363 35.6794 0.0000 44.2537
349 47 8.3723 8.3388 12.0520 31.1435 0.0000 44.5240
350 47 10.2132 10.1265 12.3078 37.8723 0.0000 35.8271
351 47 9.9684 8.3214 14.1315 36.6110 0.0000 37.1746
352 47 8.2415 10.1904 14.0754 35.4447 0.0000 35.7754
353 47 7.5576 8.4472 16.5940 41.7739 0.0000 39.3809
354 47 10.6285 9.7830 16.4117 41.0802 0.0000 36.6713
355 47 10.4014 7.9242 18.5790 31.0503 0.0000 37.9369
356 47 8.4896 10.5343 18.0652 42.4603 0.0000 34.9993
357 47 8.5487 8.5659 20.0138 32.9229 0.0000 36.1117
358 47 10.6356 10.7207 20.3139 31.6791 0.0000 35.6930
359 47 10.5830 7.8057 21.9961 33.6631 0.0000 40.4117
360 47 8.3923 10.2466 22.6244 29.2828 0.0000 42.8869
361 47 8.3264 12.3937 0.0228 33.5165 0.0000 39.8985
362 47 10.8408 14.2332 -0.1428 40.3019 0.0000 41.0981
363 47 11.0173 12.4261 1.8083 39.8324 0.0000 39.7271
364 47 8.6000 14.3637 2.1708 40.2718 0.0000 37.7094
365 47 8.1700 12.6153 3.6687 36.3944 0.0000 36.9615
366 47 10.4541 14.2083 4.0374 34.0304 0.0000 40.0645
367 47 10.2411 12.4536 5.8868 34.2532 0.0000 40.2261
368 47 8.7974 14.9059 6.6886 41.5710 0.0000 37.0993
369 47 7.6930 12.3748 8.6331 35.2625 0.0000 44.8753
370 47 10.4267 13.7676 8.1733 35.3345 0.0000 36.2676
371 47 10.3438 12.4424 9.3429 39.5066 0.0000 35.8342
372 47 8.4541 14.4357 10.1481 38.6139 0.0000 33.8382
373 47 7.6149 12.6819 12.0420 42.5992 0.0000 37.6973
374 47 10.3744 14.3391 12.9410 33.3735 0.0000 36.7154
375 47 10.1327 11.9388 14.1378 31.2258 0.0000 37.8518
376 47 8.0589 14.3357 14.3556 35.8267 0.0000 41.1983
377 47 8.2158 11.8776 16.0661 36.0079 0.0000 44.7226
378 47 10.1518 14.3676 16.4101 39.1818 0.0000 33.9820
379 47 10.3861 12.7129 18.9480 40.7376 0.0000 42.2233
380 47 7.7054 13.8312 18.3115 35.3105 0.0000 37.3209
381 47 8.4887 12.3081 21.0459 30.6456 0.0000 41.8827
382 47 10.0642 14.1500 20.0296 42.6620 0.0000 36.5039
383 47 10.1739 12.5441 22.6820 29.7038 0.0000 42.1661
384 47 8.3677 14.2372 22.5453 29.9764 0.0000 39.1122
385 47 8.3158 15.9233 -0.3677 34.2283 0.0000 33.7981
386 47 10.0591 18.3342 -0.1362 42.0502 0.0000 44.6964
387 47 10.2023 16.6451 2.0109 35.1697 0.0000 39.2533
388 47 8.4961 18.7942 1.9798 34.3688 0.0000 38.5309
389 47 7.8159 16.4681 4.2740 32.5101 0.0000 34.9043
390 47 9.4640 18.3813 3.8657 36.9546 0.0000 34.1544
391 47 9.9444 16.0359 6.4159 34.3988 0.0000 40.3014
392 47 7.7086 18.5678 6.2748 37.8592 0.0000 36.8290
393 47 7.6858 16.6454 8.2306 35.2759 0.0000 38.8769
394 47 11.1465 18.4312 8.3955 38.7167 0.0000 37.1542
395 47 10.3112 16.4483 10.0822 33.9533 0.0000 43.2204
396 47 8.2430 18.5304 9.8264 41.3914 0.0000 44.6369
397 47 8.7065 16.0079 12.1204 40.4924 0.0000 33.9509
398 47 9.6406 18.3676 12.5511 31.0779 0.0000 39.2794
399 47 10.2769 16.4959 14.7555 38.8631 0.0000 40.9018
400 47 8.5076 18.0131 14.2723 36.4170 0.0000 36.0909
401 47 7.8027 16.3371 16.2462 29.7376 0.0000 42.9315
402 47 10.0748 18.8028 16.3559 36.9756 0.0000 40.3117
403 47 10.2558 16.3537 18.3736 29.6906 0.0000 33.7523
404 47 8.0360 18.5873 18.1622 35.1345 0.0000 42.8597
405 47 8.2058 16.2482 19.9204 36.0225 0.0000 41.6597
406 47 9.8128 18.5451 20.4566 39.7428 0.0000 36.8079
407 47 10.0394 16.0741 22.5591 42.3672 0.0000 43.9669
408 47 8.1923 18.4033 22.5329 31.2680 0.0000 43.0579
409 47 7.6354 20.5259 0.0984 34.6714 0.0000 38.3255
410 47 9.9245 22.2782 0.0127 35.8909 0.0000 41.2388
411 47 9.9287 20.3044 2.0187 38.8207 0.0000 44.9052
412 47 7.8685 22.6286 1.8319 36.0044 0.0000 33.7630
413 47 8.4163 20.0278 3.7980 42.5009 0.0000 34.5398
414 47 10.0439 21.9158 4.0334 30.6000 0.0000 34.3982
415 47 10.5716 20.7497 6.2020 41.8399 0.0000 40.3942
416 47 8.0054 22.5657 5.8836 29.6204 0.0000 38.1130
417 47 8.0030 20.6564 8.5392 34.6400 0.0000 35.2148
418 47 10.3527 22.6388 8.0435 34.5762 0.0000 38.8307
419 47 10.5705 20.4321 10.4362 29.2099 0.0000 35.8565
420 47 8.3829 22.8167 10.4401 40.7885 0.0000 36.8118
421 47 8.1468 20.4257 11.8232 41.3370 0.0000 34.0555
422 47 10.8701 22.8252 12.3485 28.9377 0.0000 40.1305
423 47 10.2134 20.6336 14.6916 29.3347 0.0000 35.3830
424 47 8.5581 22.0593 14.1961 33.8908 0.0000 41.4440
425 47 7.9493 19.8054 16.5578 36.2530 0.0000 38.4100
426 47 10.2618 22.5098 15.9243 36.2363 0.0000 43.9876
427 47 10.3491 20.9053 18.6618 29.4976 0.0000 33.6246
428 47 8.2545 22.2076 18.5208 42.5891 0.0000 34.1800
429 47 8.3359 20.3554 20.5166 36.8997 0.0000 40.4235
430 47 10.1822 23.0154 20.1939 30.8524 0.0000 33.6207
431 47 9.9364 20.4153 22.2389 31.6912 0.0000 44.8665
432 47 7.8696 22.0680 22.4962 28.6894 0.0000 44.4761
433 47 12.2925 0.0922 -0.1451 41.0472 0.0000 38.3902
434 47 14.4039 1.8117 0.4566 38.2357 0.0000 34.9845
435 47 14.7161 -0.1353 2.6370 33.2089 0.0000 39.0142
436 47 12.5231 1.8349 1.5405 37.7582 0.0000 41.7187
437 47 12.2874 -0.1200 3.3994 34.4022 0.0000 43.8951
438 47 13.8436 2.0897 4.4253 39.7429 0.0000 40.6989
439 47 14.1028 0.2212 6.1026 32.4785 0.0000 35.5266
440 47 11.9110 2.6503 5.5079 28.6454 0.0000 38.3025
441 47 12.3078 0.2042 8.1691 34.2360 0.0000 41.9247
442 47 14.4123 2.2751 8.2778 29.7721 0.0000 36.2637
443 47 14.1707 -0.0560 10.3390 29.1341 0.0000 41.0400
444 47 12.1889 2.2085 10.8176 35.7464 0.0000 35.7025
445 47 12.1589 -0.1304 12.4644 42.7306 0.0000 33.5208
446 47 14.5338 2.0174 12.7248 29.6629 0.0000 37.4722
447 47 14.6454 0.5194 14.5659 41.5365 0.0000 42.0989
448 47 11.7335 2.2362 14.4889 36.7102 0.0000 37.5495
449 47 12.4195 0.5345 16.9682 29.8584 0.0000 39.1365
450 47 14.1784 2.4858 16.2925 33.1904 0.0000 34.2832
451 47 14.6754 -0.0687 18.4819 37.4766 0.0000 36.5056
452 47 12.3849 1.8159 18.4917 29.8572 0.0000 42.7959
453 47 12.3039 -0.1823 20.2970 39.0742 0.0000 40.0880
454 47 13.9839 1.9810 20.2076 41.0632 0.0000 35.6841
455 47 14.5581 0.4412 22.2385 35.4494 0.0000 34.3369
456 47 12.4478 1.6840 22.6590 36.3901 0.0000 44.4283
457 47 12.6355 4.8164 0.1967 36.5193 0.0000 41.2006
458 47 14.4376 6.4002 0.0795 32.6296 0.0000 36.9546
459 47 14.4886 4.2350 1.8102 42.6797 0.0000 38.5064
460 47 12.2899 6.1654 1.8563 37.8183 0.0000 35.8154
461 47 12.3682 4.2734 4.3653 33.8547 0.0000 34.9352
462 47 14.3458 6.2091 3.9364 41.4232 0.0000 40.4799
463 47 14.2567 4.0164 6.0098 36.5085 0.0000 37.0322
464 47 12.5995 5.8525 5.7463 41.6400 0.0000 34.4892
465 47 12.4469 3.7245 8.0243 34.0702 0.0000 38.0025
466 47 14.1895 5.7923 8.4092 39.8242 0.0000 41.5164
467 47 14.9136 3.9726 10.2656 33.8031 0.0000 41.3345
468 47 11.6830 6.3722 10.2038 38.2059 0.0000 40.4378
469 47 12.6619 3.9464 12.2137 29.3512 0.0000 39.8032
470 47 14.5397 6.1535 12.2705 40.7704 0.0000 33.3271
471 47 14.2922 3.6633 14.2502 30.3345 0.0000 44.1532
472 47 11.9053 6.1484 14.1446 39.4237 0.0000 37.9763
473 47 12.3260 4.1627 16.7279 36.4551 0.0000 43.6485
474 47 13.7944 6.4374 16.3655 31.1748 0.0000 38.2296
475 47 14.4513 4.6098 18.8937 41.3633 0.0000 33.7658
476 47 12.8064 6.7694 18.3953 39.9713 0.0000 44.5962
477 47 12.1122 3.8302 20.2918 31.6833 0.0000 44.2235
478 47 14.2661 5.7895 20.4153 34.2661 0.0000 36.7573
479 47 14.4899 3.8958 22.4462 31.2424 0.0000 34.7740
480 47 12.1304 5.7378 22.2444 38.0974 0.0000 44.8096
481 47 12.3534 8.3667 -0.1746 42.5648 0.0000 40.9430
482 47 14.1452 9.8781 0.4463 29.0342 0.0000 40.6394
483 47 14.4409 8.2530 2.2363 36.6861 0.0000 41.6937
484 47 11.6722 10.5621 1.9698 33.9307 0.0000 34.5083
485 47 11.9758 7.8400 3.7210 37.8898 0.0000 36.4201
486 47 14.3952 10.3603 4.1830 39.9418 0.0000 35.4168
487 47 13.9940 8.8830 6.2898 32.3220 0.0000 38.8101
488 47 12.4411 10.6556 6.0724 32.1820 0.0000 43.7259
489 47 12.7230 8.1729 7.6220 31.1120 0.0000 38.7259
490 47 14.2180 9.7519 7.9965 33.1605 0.0000 40.9376
491 47 14.9707 8.5223 10.5097 37.2014 0.0000 39.1572
492 47 12.1014 10.2017 11.0671 37.2124 0.0000 36.9786
493 47 11.9736 8.0581 12.0372 38.7074 0.0000 40.6362
494 47 14.6797 10.2449 12.4798 35.3933 0.0000 37.3184
495 47 14.0120 8.0615 14.0959 35.5838 0.0000 34.2092
496 47 12.1583 9.8843 14.0834 41.0717 0.0000 44.0045
497 47 12.1529 8.5051 16.1147 41.4771 0.0000 43.8942
498 47 14.9586 10.3385 15.9255 37.1301 0.0000 33.7916
499 47 14.4196 8.1476 18.5296 28.8238 0.0000 42.6111
500 47 11.9652 10.4127 18.1338 36.2627 0.0000 44.3436
501 47 12.3256 8.1489 20.2385 33.8846 0.0000 42.7861
502 47 14.5608 10.1120 19.9975 39.3117 0.0000 33.8192
503 47 14.0084 8.0308 22.1004 36.6239 0.0000 37.8345
504 47 12.2380 9.9866 22.5043 41.2952 0.0000 38.6297
505 47 11.8365 12.7996 -0.1368 36.9987 0.0000 35.5282
506 47 13.8046 14.3578 0.0857 40.4981 0.0000 37.8839
507 47 13.9991 12.0874 2.2068 38.6148 0.0000 35.8395
508 47 11.6481 14.6126 1.9500 30.6470 0.0000 42.5619
509 47 12.5948 11.9912 4.2747 37.5019 0.0000 35.5893
510 47 14.7423 14.4871 4.1680 40.2896 0.0000 36.7068
511 47 14.4108 12.4263 5.9581 40.1194 0.0000 36.3500
512 47 12.2292 14.3894 6.3606 36.8189 0.0000 44.4691
513 47 11.8586 12.1873 8.6849 30.9925 0.0000 35.2744
514 47 14.1046 14.1958 8.6544 29.0633 0.0000 40.2457
515 47 14.1144 12.0341 9.9570 40.9079 0.0000 40.6682
516 47 12.8333 14.2449 9.8902 28.8742 0.0000 43.8936
517 47 11.8711 12.5017 12.3260 31.4652 0.0000 41.9647
518 47 14.3792 13.7998 12.3260 31.1151 0.0000 37.8405
519 47 14.3786 12.7124 14.4678 42.0955 0.0000 35.0648
520 47 12.1742 14.2554 14.3224 35.5482 0.0000 42.3578
521 47 11.6188 12.6105 16.6307 32.6921 0.0000 44.5485
522 47 14.0560 14.0909 16.5970 33.0795 0.0000 34.7254
523 47 14.3172 12.3751 18.3699 33.1451 0.0000 39.7980
524 47 12.2054 14.1723 18.5083 30.7760 0.0000 43.8152
525 47 12.3440 11.7901 21.2536 29.6145 0.0000 35.2816
526 47 14.7970 14.5531 20.6449 40.4477 0.0000 33.8515
527 47 14.6605 11.9426 22.9549 35.8485 0.0000 39.3806
528 47 12.3389 13.8338 22.6316 28.7424 0.0000 35.9264
529 47 12.0317 16.7042 -0.2551 31.1199 0.0000 38.6736
530 47 14.2590 18.5712 0.3875 36.9218 0.0000 44.6093
531 47 14.4043 16.4133 1.9713 29.4409 0.0000 36.5825
532 47 12.3614 18.0499 2.0185 35.4744 0.0000 40.0221
533 47 12.1944 16.6082 4.5196 33.9012 0.0000 37.6901
534 47 14.1801 18.3801 4.1835 35.6020 0.0000 39.0902
535 47 14.1459 16.5037 6.1822 36.4802 0.0000 38.5735
536 47 12.5204 18.2902 6.4958 30.5625 0.0000 43.6847
537 47 12.8611 16.5222 7.8570 42.2185 0.0000 42.2680
538 47 14.4798 18.2817 7.7384 33.7944 0.0000 36.5872
539 47 14.7129 16.4655 9.8736 39.2658 0.0000 43.9857
540 47 11.8188 17.8932 9.6020 40.3682 0.0000 35.4422
541 47 12.5517 16.6000 12.8068 29.5035 0.0000 33.3378
542 47 13.9859 18.7834 11.9571 36.4753 0.0000 40.5375
543 47 14.2194 16.1910 14.8202 41.6892 0.0000 37.5805
544 47 12.3351 18.5082 14.4523 33.0264 0.0000 41.5780
545 47 11.6073 16.0828 16.7698 42.9033 0.0000 33.2076
546 47 14.2707 18.3929 16.3817 37.2924 0.0000 39.6117
547 47 14.5481 16.0416 18.2354 40.3260 0.0000 41.1494
548 47 11.3999 18.1992 18.0649 37.1857 0.0000 36.5968
549 47 12.7488 16.6896 20.5955 30.0774 0.0000 38.6623
550 47 13.9365 18.2259 20.8192 34.0660 0.0000 38.9758
551 47 14.4647 16.6453 22.6153 37.8559 0.0000 33.5387
552 47 12.1698 18.1470 22.2018 39.8979 0.0000 39.7736
553 47 12.5710 20.5943 -0.2965 42.4461 0.0000 37.3549
554 47 14.5513 22.5122 0.0199 33.8476 0.0000 33.3893
555 47 14.5145 20.5090 2.1277 38.4933 0.0000 37.6255
556 47 12.1960 22.0760 2.1593 32.7205 0.0000 44.8308
557 47 11.9915 20.4854 3.1377 33.3178 0.0000 36.7473
558 47 14.5303 22.0216 4.5695 41.9466 0.0000 39.7769
559 47 14.1554 20.5949 6.3491 38.2159 0.0000 33.9065
560 47 12.9057 22.8260 6.4195 42.9395 0.0000 44.0089
561 47 12.2833 19.6867 7.6991 40.9855 0.0000 33.9783
562 47 14.5635 22.2862 7.8916 37.5581 0.0000 36.2751
563 47 13.9129 20.8592 9.9863 36.1410 0.0000 34.2807
564 47 12.2296 22.6330 10.3155 38.9623 0.0000 42.6025
565 47 12.5885 20.2468 12.1765 38.2411 0.0000 38.3045
566 47 14.2586 22.7234 12.3825 33.2574 0.0000 37.5766
567 47 14.4448 20.9781 14.5501 38.6396 0.0000 38.5180
568 47 12.2112 22.5655 14.5760 40.7695 0.0000 35.9248
569 47 12.4201 20.4619 16.2184 34.9976 0.0000 35.1231