ITEM: TIMESTEP
0
ITEM: NUMBER OF ATOMS
1024
ITEM: BOX BOUNDS pp pp pp
0.0 22.9360
0.0 22.9360
0.0 22.9360
ITEM: ATOMS id type x y z error strain stiffness
1 26 0.0708 -0.0347 -0.0427 5.3583 0.0000 6.2043
2 26 1.4395 1.4088 1.4357 5.4422 0.0000 6.2938
3 26 0.0104 -0.0524 2.8119 4.9229 0.0000 5.2996
4 26 1.4396 1.3860 4.2876 5.2287 0.0000 6.5733
5 26 -0.0640 -0.0184 5.7722 4.4664 0.0000 5.8762
6 26 1.4430 1.4489 7.1872 4.5033 0.0000 5.3409
7 26 -0.0281 0.0199 8.5508 4.9100 0.0000 6.4609
8 26 1.4047 1.4863 10.0139 5.4563 0.0000 5.2438
9 26 -0.0021 0.0808 11.4454 4.9893 0.0000 5.7347
10 26 1.4621 1.4253 12.8598 4.8262 0.0000 6.1920
11 26 -0.0296 -0.0626 14.3654 4.3952 0.0000 6.0763
12 26 1.4583 1.4760 15.7066 5.3346 0.0000 5.4954
13 26 0.0212 -0.0562 17.1828 5.2344 0.0000 5.4101
14 26 1.3855 1.4061 18.6062 5.0664 0.0000 5.3198
15 26 0.0063 -0.0401 20.0850 5.1425 0.0000 5.9250
16 26 1.4096 1.4310 21.4981 5.0321 0.0000 6.7057
17 26 0.0046 2.8346 0.0181 4.7152 0.0000 5.5687
18 26 1.4210 4.3136 1.4135 5.5937 0.0000 5.5922
19 26 -0.0530 2.8447 2.8662 4.9149 0.0000 6.0374
20 26 1.4039 4.3013 4.2794 4.9099 0.0000 5.1555
21 26 0.0427 2.8709 5.7104 3.9810 0.0000 5.5364
22 26 1.4311 4.3248 7.1258 5.4753 0.0000 5.1071
23 26 -0.0079 2.8569 8.5875 5.2803 0.0000 6.4502
24 26 1.4236 4.3238 10.0979 5.2967 0.0000 6.4051
25 26 0.0540 2.9069 11.4391 5.4020 0.0000 5.1744
26 26 1.4437 4.2934 12.9077 5.5912 0.0000 5.5744
27 26 0.0343 2.9010 14.3682 4.2413 0.0000 6.5242
28 26 1.4315 4.3221 15.8274 5.0005 0.0000 6.4758
29 26 -0.0314 2.8930 17.1851 4.0668 0.0000 5.6102
30 26 1.3973 4.3179 18.6011 4.8319 0.0000 5.2437
31 26 0.0234 2.8769 20.0940 3.9248 0.0000 5.1624
32 26 1.4374 4.3324 21.5060 4.9249 0.0000 5.0319
33 26 -0.0077 5.7111 0.0156 4.2399 0.0000 5.8807
34 26 1.4209 7.1679 1.4727 3.9243 0.0000 5.4772
35 26 -0.0266 5.7318 2.8485 4.8364 0.0000 6.6389
36 26 1.4757 7.1655 4.3267 4.4105 0.0000 6.4270
37 26 -0.0700 5.7071 5.6744 4.1031 0.0000 6.3743
38 26 1.4886 7.1929 7.1541 5.4689 0.0000 5.9961
39 26 0.0087 5.7403 8.6134 4.7799 0.0000 6.0451
40 26 1.4715 7.1846 10.0394 4.1968 0.0000 6.4034
41 26 -0.0340 5.7433 11.4156 3.8610 0.0000 6.1103
42 26 1.3994 7.1888 12.8606 4.5786 0.0000 5.6901
43 26 0.0295 5.7165 14.3522 4.9668 0.0000 5.3515
44 26 1.4072 7.2049 15.7708 4.2564 0.0000 5.6096
45 26 0.0090 5.7674 17.2530 4.9787 0.0000 5.0353
46 26 1.4496 7.1609 18.5990 4.9025 0.0000 6.2866
47 26 0.0051 5.7769 20.0554 5.0773 0.0000 5.7973
48 26 1.4564 7.1135 21.4785 3.8462 0.0000 5.7998
49 26 -0.0180 8.6048 0.0267 3.9081 0.0000 5.3703
50 26 1.4275 10.0473 1.4585 5.3124 0.0000 5.6286
51 26 0.0146 8.5994 2.8515 4.9452 0.0000 5.6322
52 26 1.4475 10.0233 4.3173 4.2341 0.0000 5.7321
53 26 -0.0216 8.6481 5.7763 4.8723 0.0000 5.5956
54 26 1.3595 10.0686 7.1525 5.1885 0.0000 6.3527
55 26 -0.0056 8.5478 8.5989 5.3605 0.0000 5.8933
56 26 1.4201 10.0341 10.0390 4.8228 0.0000 5.9691
57 26 0.0024 8.6025 11.4274 5.6448 0.0000 6.7030
58 26 1.4538 10.0283 12.8905 4.2641 0.0000 6.0379
59 26 0.0158 8.6285 14.3452 4.6907 0.0000 5.1035
60 26 1.4354 10.0331 15.7980 4.6576 0.0000 5.6518
61 26 0.0078 8.6145 17.2241 5.1931 0.0000 5.2442
62 26 1.4228 10.0769 18.6217 3.8069 0.0000 5.0869
63 26 -0.0237 8.5886 20.0915 4.0153 0.0000 5.5130
64 26 1.4417 10.0366 21.4699 5.1757 0.0000 6.6314
65 26 -0.0029 11.5084 -0.0139 5.4465 0.0000 6.3181
66 26 1.4122 12.8623 1.4494 5.1922 0.0000 5.0979
67 26 0.0170 11.4188 2.8979 4.5363 0.0000 5.4420
68 26 1.4027 12.9329 4.2710 5.4250 0.0000 5.1467
69 26 -0.0049 11.4454 5.7357 4.6427 0.0000 5.0161
70 26 1.4521 12.8939 7.1284 4.0568 0.0000 5.5271
71 26 0.0092 11.4332 8.6439 4.2774 0.0000 5.9815
72 26 1.4186 12.9018 10.0436 4.7717 0.0000 6.0980
73 26 0.0277 11.4182 11.4948 4.0416 0.0000 6.4276
74 26 1.3894 12.8927 12.9236 4.9551 0.0000 6.3236
75 26 0.0252 11.4711 14.3411 4.1829 0.0000 5.1783
76 26 1.4760 12.8867 15.7883 5.3935 0.0000 6.1845
77 26 0.0160 11.4712 17.2592 4.7124 0.0000 5.9239
78 26 1.3914 12.9425 18.6404 5.2141 0.0000 5.6158
79 26 -0.0061 11.4411 20.1076 4.0534 0.0000 6.3870
80 26 1.4405 12.8969 21.4796 4.3651 0.0000 6.5509
81 26 -0.0040 14.3916 0.0537 5.1296 0.0000 5.2014
82 26 1.4040 15.7784 1.4251 5.5012 0.0000 5.2328
83 26 -0.0345 14.3779 2.8809 4.9122 0.0000 5.4649
84 26 1.4719 15.7506 4.2652 5.4475 0.0000 5.8678
85 26 0.0275 14.3076 5.7244 4.7859 0.0000 6.1036
86 26 1.4583 15.7625 7.1885 5.1843 0.0000 6.5230
87 26 0.0035 14.3297 8.5857 4.0590 0.0000 5.2786
88 26 1.4560 15.7813 10.0704 4.0095 0.0000 6.0623
89 26 -0.0233 14.3504 11.4500 3.9137 0.0000 5.0414
90 26 1.4595 15.7815 12.8630 3.8051 0.0000 5.4923
91 26 0.0067 14.3170 14.3306 5.3085 0.0000 5.1618
92 26 1.3989 15.7986 15.7782 4.6188 0.0000 5.6195
93 26 -0.0372 14.3517 17.1889 5.4807 0.0000 5.9003
94 26 1.4277 15.7360 18.6450 5.5735 0.0000 6.3623
95 26 -0.0156 14.3819 20.0767 4.5237 0.0000 6.1845
96 26 1.4349 15.7919 21.4785 5.1583 0.0000 5.9866
97 26 -0.0126 17.2058 -0.0181 4.9295 0.0000 6.4098
98 26 1.4299 18.6689 1.4093 5.3723 0.0000 5.3426
99 26 0.0108 17.1598 2.8425 3.7720 0.0000 5.3416
100 26 1.4520 18.6087 4.3051 3.9259 0.0000 5.8480
101 26 0.0212 17.1883 5.7663 3.8662 0.0000 5.2531
102 26 1.4229 18.6907 7.2189 5.6130 0.0000 5.1355
103 26 0.0776 17.2423 8.6308 5.2144 0.0000 5.7468
104 26 1.4453 18.6523 10.0259 4.6880 0.0000 5.8423
105 26 0.0093 17.2220 11.4829 5.5116 0.0000 5.3496
106 26 1.4379 18.6377 12.9659 5.5155 0.0000 6.2254
107 26 -0.0263 17.2086 14.3902 5.1935 0.0000 6.4937
108 26 1.4264 18.6602 15.7568 4.2469 0.0000 5.0680
109 26 -0.0428 17.2017 17.2047 4.4810 0.0000 4.9872
110 26 1.4429 18.6480 18.6071 5.3190 0.0000 5.9323
111 26 -0.0483 17.2333 20.0851 4.1609 0.0000 5.3604
112 26 1.4145 18.6785 21.5116 5.0001 0.0000 5.2642
113 26 0.0382 20.0318 -0.0033 4.5841 0.0000 6.1717
114 26 1.4074 21.4657 1.4602 3.8782 0.0000 5.5068
115 26 -0.0323 20.1003 2.8151 5.2204 0.0000 6.3570
116 26 1.4854 21.5145 4.2743 4.7746 0.0000 6.2670
117 26 0.0438 20.0867 5.6947 4.1574 0.0000 6.2225
118 26 1.4646 21.4876 7.1809 4.2083 0.0000 5.7904
119 26 0.0180 20.0750 8.6088 4.6054 0.0000 5.2721
120 26 1.3589 21.5498 10.0702 4.1537 0.0000 6.6095
121 26 0.0291 20.0617 11.4366 3.9530 0.0000 5.8875
122 26 1.4448 21.5176 12.9645 3.8613 0.0000 5.1204
123 26 0.0298 20.0561 14.3147 4.3606 0.0000 5.6538
124 26 1.4136 21.4702 15.7604 4.5163 0.0000 6.6781
125 26 0.0218 20.0657 17.2252 5.6151 0.0000 5.5064
126 26 1.4366 21.5129 18.5968 5.0439 0.0000 5.7354
127 26 0.0242 20.0205 20.0146 5.2459 0.0000 5.6003
128 26 1.4448 21.4666 21.5081 4.5519 0.0000 5.0699
129 26 2.8631 0.0328 0.0019 4.8572 0.0000 5.1033
130 26 4.2644 1.4110 1.4331 4.8192 0.0000 6.5821
131 26 2.8793 0.0263 2.8650 4.5716 0.0000 5.0184
132 26 4.2908 1.4314 4.3507 5.2447 0.0000 5.9289
133 26 2.8685 -0.0353 5.7480 5.3449 0.0000 4.9867
134 26 4.3177 1.4213 7.2112 3.9961 0.0000 6.5664
135 26 2.8410 -0.0226 8.5772 4.5088 0.0000 6.5622
136 26 4.3104 1.4261 10.0065 4.9942 0.0000 6.4345
137 26 2.8800 0.0025 11.4899 3.8048 0.0000 6.1333
138 26 4.3498 1.4326 12.8751 5.5163 0.0000 5.1417
139 26 2.8899 -0.0309 14.3070 4.7367 0.0000 5.9175
140 26 4.2933 1.4465 15.7812 4.3101 0.0000 5.2415
141 26 2.8121 -0.0046 17.1944 4.1269 0.0000 5.6172
142 26 4.3158 1.4659 18.5876 4.4495 0.0000 6.2925
143 26 2.9032 0.0152 20.0126 5.1548 0.0000 5.3101
144 26 4.2150 1.4137 21.4971 5.1050 0.0000 6.6610
145 26 2.8969 2.8905 0.0051 5.5097 0.0000 5.9713
146 26 4.3071 4.2749 1.4697 3.9972 0.0000 6.5055
147 26 2.8708 2.8702 2.8614 3.8468 0.0000 6.3677
148 26 4.2762 4.3267 4.2994 4.0481 0.0000 6.1736
149 26 2.8306 2.8762 5.7094 4.1584 0.0000 5.3779
150 26 4.2380 4.3314 7.1996 4.3455 0.0000 5.8179
151 26 2.8609 2.8843 8.6311 5.0810 0.0000 5.5127
152 26 4.3171 4.2746 10.0703 3.8536 0.0000 5.9566
153 26 2.8784 2.9053 11.4647 4.8507 0.0000 5.7367
154 26 4.3164 4.3161 12.9102 4.8367 0.0000 5.6875
155 26 2.8590 2.8793 14.3402 4.2872 0.0000 6.6886
156 26 4.2843 4.3196 15.7535 3.8734 0.0000 5.3582
157 26 2.8575 2.9069 17.1980 3.8319 0.0000 6.1085
158 26 4.2853 4.3261 18.6427 4.9350 0.0000 5.9628
159 26 2.8818 2.8246 20.0763 3.8322 0.0000 5.0916
160 26 4.2525 4.3514 21.5264 5.0469 0.0000 6.0140
161 26 2.8429 5.6969 -0.0191 4.6345 0.0000 6.4949
162 26 4.3290 7.1312 1.4319 4.9486 0.0000 5.4218
163 26 2.8628 5.7165 2.8902 4.1769 0.0000 6.6188
164 26 4.3316 7.1779 4.2966 4.1192 0.0000 5.1663
165 26 2.8903 5.7641 5.7172 5.2904 0.0000 5.9120
166 26 4.2631 7.1727 7.1489 5.2765 0.0000 6.2915
167 26 2.8329 5.7190 8.6411 5.5538 0.0000 5.5977
168 26 4.3070 7.1655 10.0530 5.0965 0.0000 6.4885
169 26 2.8592 5.7456 11.5189 4.7791 0.0000 6.4040
170 26 4.3087 7.1571 12.8888 5.1545 0.0000 6.5042
171 26 2.8602 5.7311 14.3800 3.8702 0.0000 5.3220
172 26 4.3287 7.1605 15.7650 4.7997 0.0000 6.5622
173 26 2.8788 5.7312 17.2134 5.0776 0.0000 5.4307
174 26 4.3311 7.1853 18.6893 4.8864 0.0000 5.0801
175 26 2.7991 5.7705 20.1350 5.6097 0.0000 5.4223
176 26 4.2870 7.1459 21.4807 5.3844 0.0000 6.2753
177 26 2.8819 8.5873 0.0099 3.8049 0.0000 6.7078
178 26 4.2915 9.9947 1.4821 4.6581 0.0000 5.2221
179 26 2.8393 8.6006 2.8652 4.7893 0.0000 5.2591
180 26 4.2945 10.0671 4.2911 4.6624 0.0000 5.6792
181 26 2.8751 8.6069 5.7462 4.3468 0.0000 5.7004
182 26 4.3161 10.0634 7.1740 3.8240 0.0000 5.6959
183 26 2.8155 8.5875 8.5933 4.4798 0.0000 6.4878
184 26 4.3079 10.0377 10.0368 4.3338 0.0000 5.8343
185 26 2.9110 8.5928 11.4745 4.5032 0.0000 5.9542
186 26 4.3033 10.0163 12.8301 4.6140 0.0000 6.5157
187 26 2.8766 8.6172 14.3723 5.0948 0.0000 5.2693
188 26 4.3027 10.0643 15.7815 4.9611 0.0000 5.5316
189 26 2.8715 8.5888 17.2144 4.1927 0.0000 6.6661
190 26 4.3587 10.0210 18.6642 5.0739 0.0000 5.7118
191 26 2.8796 8.5768 19.9870 4.6059 0.0000 5.1589
192 26 4.2517 10.0848 21.4922 3.9713 0.0000 5.1519
193 26 2.8482 11.4717 0.0325 4.7181 0.0000 6.2145
194 26 4.2918 12.8832 1.4083 4.1687 0.0000 6.2770
195 26 2.9061 11.4833 2.8592 5.3839 0.0000 6.5710
196 26 4.3474 12.9178 4.3300 3.8617 0.0000 6.1360
197 26 2.8464 11.4973 5.7674 4.4606 0.0000 6.6136
198 26 4.3048 12.8895 7.1583 4.6635 0.0000 5.6963
199 26 2.8756 11.4667 8.5898 5.5978 0.0000 5.7146
200 26 4.2897 12.9035 10.0546 4.7259 0.0000 6.0078
201 26 2.8279 11.4803 11.4220 4.1489 0.0000 4.9999
202 26 4.3019 12.9082 12.9195 5.5667 0.0000 6.5721
203 26 2.8563 11.4946 14.2659 3.9535 0.0000 6.2017
204 26 4.3200 12.8954 15.7708 5.4855 0.0000 5.6229
205 26 2.9053 11.4632 17.2099 4.4103 0.0000 6.3016
206 26 4.3106 12.9303 18.5844 3.9524 0.0000 6.2459
207 26 2.8531 11.4115 20.0248 3.9821 0.0000 5.0761
208 26 4.3315 12.9151 21.5140 5.1652 0.0000 5.0029
209 26 2.8662 14.3465 -0.0060 4.6356 0.0000 5.6130
210 26 4.2602 15.7535 1.4515 5.4184 0.0000 5.7106
211 26 2.9094 14.3375 2.8670 4.0244 0.0000 5.1420
212 26 4.2293 15.7947 4.3230 4.0592 0.0000 6.4748
213 26 2.9131 14.2877 5.7303 4.3802 0.0000 4.9747
214 26 4.2645 15.7855 7.1507 5.2408 0.0000 6.0832
215 26 2.8432 14.3485 8.5906 4.6893 0.0000 6.4362
216 26 4.3418 15.7555 9.9969 4.9837 0.0000 5.6638
217 26 2.8894 14.2625 11.5087 5.0301 0.0000 6.4451
218 26 4.3421 15.7331 12.9140 4.9108 0.0000 5.3034
219 26 2.8328 14.2869 14.3055 5.2218 0.0000 5.3026
220 26 4.3548 15.6804 15.7732 4.6249 0.0000 5.8803
221 26 2.8468 14.2828 17.1924 4.4553 0.0000 6.0690
222 26 4.2783 15.7633 18.6162 4.2194 0.0000 5.8727
223 26 2.8621 14.3352 20.0869 4.1893 0.0000 5.3208
224 26 4.3305 15.8004 21.5703 5.0920 0.0000 6.0933
225 26 2.8458 17.2351 -0.0422 4.9709 0.0000 5.0637
226 26 4.3485 18.6266 1.4676 5.2823 0.0000 6.5428
227 26 2.8909 17.1814 2.8299 4.4660 0.0000 6.1275
228 26 4.3020 18.6219 4.3045 4.9014 0.0000 6.6467
229 26 2.8678 17.2245 5.7484 4.7761 0.0000 5.5393
230 26 4.3406 18.6922 7.1276 5.3995 0.0000 5.2226
231 26 2.8829 17.1718 8.6288 4.3722 0.0000 5.7449
232 26 4.3042 18.6491 10.0117 4.9289 0.0000 6.4583
233 26 2.8587 17.1683 11.4717 4.1848 0.0000 5.2610
234 26 4.2549 18.6553 12.8788 3.9987 0.0000 5.4823
235 26 2.9028 17.2444 14.3512 4.2922 0.0000 5.4342
236 26 4.2859 18.6532 15.8321 4.7296 0.0000 6.2769
237 26 2.8655 17.1975 17.1551 5.0731 0.0000 6.5253
238 26 4.2660 18.6620 18.6018 5.0667 0.0000 5.5317
239 26 2.8806 17.1949 20.0422 5.2985 0.0000 5.7158
240 26 4.2695 18.6431 21.5010 3.9005 0.0000 6.5592
241 26 2.8606 20.0400 0.0162 5.0873 0.0000 6.5485
242 26 4.2444 21.5112 1.4405 4.9524 0.0000 5.7593
243 26 2.8775 20.0462 2.8330 4.2925 0.0000 5.1259
244 26 4.3026 21.4593 4.2952 4.1823 0.0000 6.3644
245 26 2.8866 20.0555 5.7432 3.9207 0.0000 6.0679
246 26 4.3147 21.5059 7.1535 4.0006 0.0000 6.1010
247 26 2.8666 20.0669 8.6375 4.1804 0.0000 6.1179
248 26 4.3173 21.5269 10.0370 4.2637 0.0000 5.9639
249 26 2.8669 20.1276 11.4586 4.9921 0.0000 5.8442
250 26 4.2783 21.4739 12.8990 5.0187 0.0000 6.2773
251 26 2.8522 20.0828 14.3421 4.8966 0.0000 5.6172
252 26 4.2404 21.5203 15.7894 4.3054 0.0000 6.6829
253 26 2.8696 20.1269 17.1798 4.7988 0.0000 6.4923
254 26 4.2915 21.4983 18.6113 5.0996 0.0000 5.4549
255 26 2.8978 20.1062 20.0828 3.7965 0.0000 5.9097
256 26 4.3063 21.4482 21.4762 3.9282 0.0000 5.4799
257 26 5.7350 -0.0374 0.0160 4.4152 0.0000 6.3479
258 26 7.1429 1.4394 1.4475 5.2496 0.0000 5.2685
259 26 5.7457 -0.0355 2.8287 5.0443 0.0000 6.5313
260 26 7.2171 1.4466 4.3335 5.4495 0.0000 5.5792
261 26 5.7383 0.0005 5.7393 4.8526 0.0000 5.2165
262 26 7.1709 1.4697 7.1606 5.4073 0.0000 5.8125
263 26 5.7419 -0.0152 8.5859 5.5356 0.0000 5.9057
264 26 7.1561 1.4447 10.0649 4.1448 0.0000 6.4020
265 26 5.7297 -0.0013 11.4481 4.6270 0.0000 6.5756
266 26 7.1350 1.4446 12.9214 4.5604 0.0000 4.9782
267 26 5.7244 0.0161 14.3241 5.1317 0.0000 5.2169
268 26 7.1312 1.4146 15.7673 5.4193 0.0000 6.5516
269 26 5.7008 -0.0215 17.1875 5.0019 0.0000 5.4077
270 26 7.2160 1.4356 18.6268 3.8243 0.0000 5.4370
271 26 5.7818 0.0063 20.1419 5.2595 0.0000 5.6259
272 26 7.1998 1.4626 21.5838 4.2765 0.0000 6.1224
273 26 5.7103 2.9421 -0.0396 5.1598 0.0000 5.2390
274 26 7.1585 4.3074 1.4278 4.1063 0.0000 6.6399
275 26 5.7041 2.8657 2.8416 5.2976 0.0000 6.3220
276 26 7.1932 4.2849 4.3525 3.9663 0.0000 6.3688
277 26 5.7243 2.8409 5.7389 5.0006 0.0000 6.0628
278 26 7.1731 4.2656 7.1613 4.9426 0.0000 5.7731
279 26 5.6782 2.8416 8.6331 4.7508 0.0000 5.7011
280 26 7.1139 4.3307 10.0105 5.4442 0.0000 5.3284
281 26 5.6818 2.8400 11.4697 4.6129 0.0000 5.1275
282 26 7.1609 4.3012 12.9114 5.3316 0.0000 5.0106
283 26 5.7640 2.8210 14.3088 5.2743 0.0000 5.5480
284 26 7.1754 4.3329 15.7700 4.5708 0.0000 5.3760
285 26 5.7482 2.8472 17.2219 5.6027 0.0000 5.7921
286 26 7.2026 4.3051 18.6661 4.5558 0.0000 5.5000
287 26 5.7382 2.9065 20.0067 5.0281 0.0000 5.6720
288 26 7.1092 4.2792 21.5434 4.1537 0.0000 6.3480
289 26 5.7710 5.7109 0.0279 4.9274 0.0000 4.9967
290 26 7.1246 7.1385 1.4700 4.1162 0.0000 6.6498
291 26 5.7102 5.7487 2.9038 4.4209 0.0000 5.8199
292 26 7.1156 7.1333 4.3448 5.2134 0.0000 5.2710
293 26 5.7579 5.7234 5.6908 3.9083 0.0000 5.2458
294 26 7.1732 7.1416 7.1801 4.0563 0.0000 5.6707
295 26 5.7070 5.7523 8.5995 4.3235 0.0000 6.0476
296 26 7.2026 7.1574 10.0098 4.8718 0.0000 4.9650
297 26 5.7442 5.7604 11.4021 5.3293 0.0000 6.0054
298 26 7.1421 7.1699 12.9415 3.8563 0.0000 6.1620
299 26 5.7419 5.7722 14.3212 4.0107 0.0000 6.4979
300 26 7.1770 7.1042 15.8003 4.5246 0.0000 5.0292
301 26 5.7370 5.7470 17.2331 5.3967 0.0000 5.3468
302 26 7.2213 7.1633 18.6195 5.2728 0.0000 5.5267
303 26 5.7343 5.6923 20.0908 5.5196 0.0000 5.6297
304 26 7.1887 7.1307 21.4985 5.0504 0.0000 5.4026
305 26 5.7802 8.6174 0.0185 4.9159 0.0000 6.0443
306 26 7.1718 10.0395 1.5088 5.4695 0.0000 6.6739
307 26 5.7271 8.5559 2.8789 4.9735 0.0000 6.3171
308 26 7.1695 10.0332 4.2870 3.9928 0.0000 5.6688
309 26 5.7761 8.5547 5.6887 5.1304 0.0000 5.9352
310 26 7.1368 10.0846 7.1757 4.2230 0.0000 5.8127
311 26 5.7411 8.5823 8.5853 4.3710 0.0000 6.6559
312 26 7.1243 10.0867 10.0025 3.7947 0.0000 6.3749
313 26 5.7100 8.5940 11.4411 4.0960 0.0000 6.4244
314 26 7.1348 10.0092 12.8852 4.9493 0.0000 6.6106
315 26 5.7314 8.5930 14.3464 4.7970 0.0000 5.1049
316 26 7.1762 10.0481 15.7070 3.9210 0.0000 5.6347
317 26 5.6929 8.5694 17.2440 4.4991 0.0000 5.6328
318 26 7.1675 10.0147 18.6135 4.5358 0.0000 6.6404
319 26 5.7354 8.6053 20.0700 5.2672 0.0000 5.2373
320 26 7.1274 10.0660 21.5297 4.5047 0.0000 6.2457
321 26 5.6863 11.4423 -0.0042 3.9566 0.0000 6.5341
322 26 7.1593 12.8812 1.4361 4.5769 0.0000 5.8857
323 26 5.7352 11.4480 2.8909 5.4428 0.0000 5.9552
324 26 7.1691 12.8723 4.2923 4.7312 0.0000 5.4066
325 26 5.7294 11.4865 5.8043 4.8425 0.0000 5.2579
326 26 7.1573 12.9435 7.1527 4.3793 0.0000 5.1384
327 26 5.7288 11.4631 8.6168 3.9559 0.0000 5.9031
328 26 7.2031 12.9380 9.9893 4.2459 0.0000 6.6189
329 26 5.7113 11.4273 11.4756 3.9573 0.0000 5.5735
330 26 7.1341 12.8913 12.8550 4.1274 0.0000 5.9218
331 26 5.7209 11.4288 14.3630 3.9728 0.0000 5.8451
332 26 7.1415 12.8659 15.7663 5.1425 0.0000 5.7553
333 26 5.7286 11.4810 17.1697 4.7366 0.0000 5.8947
334 26 7.1533 12.8691 18.6367 4.3731 0.0000 5.3648
335 26 5.7052 11.5114 20.0705 4.0731 0.0000 6.5854
336 26 7.1435 12.9042 21.5020 4.9894 0.0000 6.0373
337 26 5.7624 14.2783 0.0065 4.4445 0.0000 5.2588
338 26 7.1544 15.7819 1.4096 4.8960 0.0000 5.1618
339 26 5.7175 14.3318 2.8806 4.3264 0.0000 5.5181
340 26 7.2108 15.7733 4.3103 5.4774 0.0000 5.1238
341 26 5.7418 14.3172 5.7420 5.0046 0.0000 5.1918
342 26 7.1751 15.7732 7.1692 4.0121 0.0000 5.4619
343 26 5.7138 14.3141 8.6098 5.3924 0.0000 5.5703
344 26 7.1455 15.7457 10.0058 5.3077 0.0000 5.0682
345 26 5.7542 14.2909 11.4460 4.5990 0.0000 5.8696
346 26 7.1781 15.8086 12.9325 3.9976 0.0000 5.3792
347 26 5.7306 14.3080 14.3256 5.2851 0.0000 5.8262
348 26 7.1817 15.7445 15.8261 3.8555 0.0000 6.6733
349 26 5.7354 14.3233 17.1866 4.7554 0.0000 5.8036
350 26 7.2071 15.7897 18.6432 3.7949 0.0000 5.0933
351 26 5.7179 14.2901 20.0551 4.6042 0.0000 6.0990
352 26 7.1549 15.7691 21.5059 5.4019 0.0000 5.9247
353 26 5.7085 17.1715 -0.0394 4.5991 0.0000 6.4488
354 26 7.1739 18.6624 1.4070 3.9983 0.0000 6.3162
355 26 5.7636 17.1721 2.8944 5.6296 0.0000 6.1504
356 26 7.1769 18.6397 4.2747 5.5732 0.0000 6.6466
357 26 5.7450 17.1974 5.7419 4.3328 0.0000 5.1157
358 26 7.1630 18.6229 7.1496 4.3842 0.0000 6.6698
359 26 5.7404 17.2144 8.5965 3.7765 0.0000 5.0731
360 26 7.1486 18.6109 10.0065 4.0444 0.0000 4.9867
361 26 5.6975 17.1654 11.4367 5.2845 0.0000 5.2169
362 26 7.1414 18.6139 12.9894 4.6406 0.0000 5.6731
363 26 5.7195 17.1924 14.2965 4.6156 0.0000 6.4592
364 26 7.1337 18.6335 15.8055 5.6219 0.0000 5.7916
365 26 5.7349 17.1871 17.1984 4.2301 0.0000 5.3275
366 26 7.1423 18.6381 18.6241 4.1353 0.0000 6.1780
367 26 5.7277 17.2206 20.0462 4.2674 0.0000 5.8450
368 26 7.1882 18.6186 21.4902 3.9898 0.0000 5.4042
369 26 5.7593 20.0542 -0.0018 5.2623 0.0000 6.2305
370 26 7.1446 21.4811 1.4101 4.0815 0.0000 5.7257
371 26 5.7256 20.0242 2.8660 5.0217 0.0000 6.0571
372 26 7.1224 21.4773 4.2929 4.5568 0.0000 5.8300
373 26 5.7231 20.1123 5.7306 4.4760 0.0000 5.1486
374 26 7.2233 21.4935 7.2246 4.5844 0.0000 5.5349
375 26 5.7563 20.0838 8.6367 3.8877 0.0000 6.6813
376 26 7.1668 21.5071 10.0410 4.0487 0.0000 6.5915
377 26 5.6758 20.0706 11.4305 4.4467 0.0000 6.0897
378 26 7.1830 21.4937 12.8757 3.8356 0.0000 5.4941
379 26 5.6924 20.0951 14.3472 4.7700 0.0000 5.1835
380 26 7.1564 21.5188 15.7764 5.0330 0.0000 6.3126
381 26 5.7404 20.0429 17.2389 4.7328 0.0000 6.1705
382 26 7.1346 21.5014 18.6588 5.1066 0.0000 5.2508
383 26 5.7007 20.1061 20.0473 4.9601 0.0000 5.3715
384 26 7.1568 21.5187 21.5072 4.4923 0.0000 5.5523
385 26 8.5945 -0.0267 0.0181 5.2904 0.0000 5.5625
386 26 10.0414 1.4247 1.4492 5.6082 0.0000 6.2075
387 26 8.5774 0.0018 2.9031 3.9028 0.0000 5.6582
388 26 10.0294 1.4477 4.2639 4.4253 0.0000 6.1682
389 26 8.5866 0.0165 5.7394 4.1678 0.0000 5.9435
390 26 9.9945 1.3864 7.1993 4.2785 0.0000 6.3007
391 26 8.5504 -0.0289 8.5900 4.9960 0.0000 6.5135
392 26 10.0954 1.4619 10.0426 5.5348 0.0000 5.9715
393 26 8.6545 0.0284 11.4769 4.4723 0.0000 6.6641
394 26 10.0020 1.3947 12.9038 5.2911 0.0000 5.0019
395 26 8.5892 -0.0591 14.3320 4.9565 0.0000 5.9617
396 26 10.0493 1.4072 15.7034 4.2327 0.0000 6.4795
397 26 8.5738 0.0031 17.2491 5.4777 0.0000 5.4442
398 26 10.0482 1.3868 18.6413 5.4522 0.0000 5.6057
399 26 8.5942 -0.0065 20.0895 4.3446 0.0000 5.3749
400 26 10.0265 1.4244 21.5198 4.5513 0.0000 6.5145
401 26 8.5672 2.8496 -0.0570 5.3115 0.0000 6.4560
402 26 10.0128 4.3217 1.4572 5.3662 0.0000 5.1205
403 26 8.6073 2.8980 2.8570 5.4094 0.0000 6.6480
404 26 10.0341 4.2967 4.2711 3.8321 0.0000 6.1269
405 26 8.6303 2.8415 5.7211 3.9241 0.0000 6.4847
406 26 10.0651 4.3356 7.2134 4.3485 0.0000 5.8166
407 26 8.6620 2.8468 8.5789 4.7070 0.0000 6.2909
408 26 10.0298 4.3287 10.0331 4.4820 0.0000 5.4388
409 26 8.6082 2.8511 11.4733 5.0971 0.0000 6.6584
410 26 10.0041 4.2771 12.8804 4.4648 0.0000 5.3402
411 26 8.6115 2.8362 14.3456 3.8270 0.0000 6.3507
412 26 10.0324 4.2811 15.7336 4.3937 0.0000 5.8950
413 26 8.5844 2.8132 17.2258 5.1464 0.0000 5.9398
414 26 10.0353 4.2958 18.6184 4.5185 0.0000 6.4019
415 26 8.5592 2.8448 20.0931 4.8623 0.0000 6.4583
416 26 10.0232 4.3060 21.5281 4.6669 0.0000 5.0547
417 26 8.6118 5.6959 0.0351 3.8636 0.0000 6.6022
418 26 10.0979 7.1923 1.4308 5.4739 0.0000 6.1612
419 26 8.6464 5.7404 2.8766 5.1348 0.0000 5.1808
420 26 10.0739 7.1585 4.3018 4.9420 0.0000 6.1958
421 26 8.5743 5.7879 5.7814 4.6274 0.0000 5.0746
422 26 10.0334 7.1777 7.1441 3.9141 0.0000 5.7951
423 26 8.6215 5.7178 8.5910 4.5494 0.0000 6.4961
424 26 10.0494 7.1420 10.0136 3.8587 0.0000 5.9722
425 26 8.5354 5.7148 11.4673 4.9372 0.0000 5.1748
426 26 10.0494 7.1592 12.9421 3.9535 0.0000 6.1082
427 26 8.6141 5.7285 14.3472 3.8327 0.0000 5.7037
428 26 10.0654 7.1338 15.7971 3.7679 0.0000 6.5490
429 26 8.6091 5.7223 17.2072 4.9131 0.0000 6.2838
430 26 10.0420 7.1606 18.6149 5.0300 0.0000 5.8939
431 26 8.6154 5.7322 20.0709 4.6213 0.0000 5.1637
432 26 10.0099 7.1547 21.4738 4.2311 0.0000 5.5618
433 26 8.6251 8.5742 -0.0152 4.4133 0.0000 5.5977
434 26 10.0009 10.0804 1.4549 3.8323 0.0000 5.8631
435 26 8.6186 8.6318 2.9052 4.5326 0.0000 5.8801
436 26 10.0661 10.0376 4.3040 5.5879 0.0000 5.2830
437 26 8.5944 8.6121 5.7408 5.2395 0.0000 5.1295
438 26 10.0720 10.0980 7.1864 5.0456 0.0000 5.9700
439 26 8.5987 8.6111 8.6042 5.0911 0.0000 5.2045
440 26 10.0171 10.0453 10.0108 3.8959 0.0000 5.3760
441 26 8.5939 8.5620 11.4660 5.6067 0.0000 6.3933
442 26 10.0744 9.9951 12.8669 5.5715 0.0000 5.9965
443 26 8.5766 8.5698 14.3683 4.1999 0.0000 6.5878
444 26 10.0793 10.0411 15.7382 5.0110 0.0000 6.3478
445 26 8.5620 8.6139 17.1977 5.1190 0.0000 6.1254
446 26 10.0129 10.0276 18.6197 4.5067 0.0000 5.4278
447 26 8.5674 8.5855 20.0885 4.6531 0.0000 5.9351
448 26 10.0557 10.0233 21.5243 4.0742 0.0000 6.4240
449 26 8.5521 11.5070 -0.0433 4.7055 0.0000 5.3689
450 26 10.0199 12.8683 1.4049 5.2358 0.0000 6.6264
451 26 8.5934 11.4950 2.8966 4.6813 0.0000 6.0710
452 26 9.9968 12.8608 4.2965 5.6269 0.0000 5.7793
453 26 8.5806 11.5065 5.7394 4.3089 0.0000 6.1703
454 26 10.0401 12.8941 7.1979 5.2046 0.0000 5.8121
455 26 8.6029 11.5072 8.5925 5.3604 0.0000 6.0764
456 26 10.0723 12.8823 10.0476 5.4447 0.0000 6.6865
457 26 8.6326 11.4783 11.4375 4.4885 0.0000 5.8018
458 26 10.0287 12.9496 12.8655 4.4024 0.0000 5.1429
459 26 8.5452 11.4815 14.3122 5.3600 0.0000 5.1416
460 26 10.0475 12.9109 15.7188 5.3464 0.0000 5.6130
461 26 8.5872 11.5440 17.2043 5.4552 0.0000 5.6156
462 26 9.9915 12.9094 18.6801 4.3628 0.0000 5.3707
463 26 8.5388 11.4684 20.0609 4.6468 0.0000 5.9676
464 26 10.0463 12.9060 21.4993 4.9829 0.0000 6.6862
465 26 8.5665 14.3094 0.0198 4.4990 0.0000 5.1252
466 26 10.0202 15.7944 1.4300 4.7808 0.0000 5.4501
467 26 8.5852 14.3373 2.7991 5.0730 0.0000 5.9879
468 26 10.0090 15.7758 4.2783 4.6928 0.0000 5.0701
469 26 8.5840 14.3265 5.7849 5.5435 0.0000 5.2508
470 26 10.0527 15.7570 7.1993 5.2859 0.0000 6.1304
471 26 8.5941 14.3528 8.6355 4.5343 0.0000 5.9694
472 26 10.0866 15.7129 10.0852 4.8433 0.0000 5.1361
473 26 8.6453 14.3673 11.5000 3.7683 0.0000 6.6404
474 26 10.0128 15.7226 12.8766 4.1763 0.0000 5.0051
475 26 8.6064 14.3100 14.3622 3.8026 0.0000 5.2479
476 26 10.0898 15.7910 15.7679 4.7754 0.0000 5.8233
477 26 8.6169 14.3355 17.2055 4.9109 0.0000 6.5594
478 26 10.0533 15.7925 18.6220 4.8076 0.0000 5.1538
479 26 8.6269 14.3256 20.0002 5.2302 0.0000 5.9351
480 26 10.0690 15.7380 21.5114 4.1405 0.0000 5.3872
481 26 8.6225 17.2439 0.0075 5.2202 0.0000 6.0309
482 26 10.0473 18.6608 1.4216 3.9660 0.0000 5.7334
483 26 8.5872 17.1816 2.8684 4.4374 0.0000 6.3456
484 26 10.0468 18.6055 4.2727 4.4831 0.0000 5.0054
485 26 8.5833 17.2360 5.7512 4.5219 0.0000 4.9753
486 26 10.0499 18.6105 7.1528 5.0153 0.0000 5.7514
487 26 8.5652 17.1591 8.5370 4.6619 0.0000 5.0613
488 26 10.0257 18.6597 10.0282 5.1808 0.0000 5.1355
489 26 8.5983 17.2347 11.4894 5.2706 0.0000 6.5979
490 26 10.0096 18.6080 12.9033 5.1810 0.0000 5.2220
491 26 8.5805 17.1953 14.3346 5.2039 0.0000 6.5161
492 26 10.0646 18.6551 15.8068 5.5241 0.0000 5.8016
493 26 8.6418 17.2004 17.2212 4.6380 0.0000 6.0097
494 26 10.0470 18.6079 18.6486 5.3770 0.0000 5.0771
495 26 8.5706 17.1863 20.0664 4.3145 0.0000 5.4311
496 26 10.0333 18.6329 21.4875 5.4171 0.0000 6.4424
497 26 8.5952 20.0951 -0.0296 4.2161 0.0000 6.1620
498 26 10.0684 21.4899 1.4121 4.1817 0.0000 5.2443
499 26 8.5880 20.0288 2.8756 5.2867 0.0000 5.8857
500 26 10.0390 21.4991 4.3434 4.4123 0.0000 5.6481
501 26 8.5947 20.0435 5.7044 4.7050 0.0000 6.1315
502 26 10.0653 21.5295 7.2484 4.3521 0.0000 5.7746
503 26 8.6135 20.0462 8.6465 3.8670 0.0000 6.2368
504 26 10.0192 21.5058 10.0022 5.4918 0.0000 5.3343
505 26 8.6308 20.0583 11.5317 3.8067 0.0000 5.3516
506 26 10.0170 21.5699 12.8827 4.6733 0.0000 5.6942
507 26 8.5905 20.0726 14.3399 4.8111 0.0000 5.5704
508 26 10.0838 21.5485 15.7718 4.5850 0.0000 5.9064
509 26 8.5961 20.0567 17.2151 4.3146 0.0000 5.0294
510 26 10.0631 21.5506 18.5915 5.0848 0.0000 6.3071
511 26 8.6230 20.0664 20.0942 5.4094 0.0000 5.5570
512 26 10.0535 21.4279 21.5608 4.0340 0.0000 5.3703
513 26 11.4748 0.0060 0.0478 3.7989 0.0000 6.4848
514 26 12.9004 1.4232 1.4605 4.7940 0.0000 4.9902
515 26 11.4209 -0.0200 2.8333 5.6283 0.0000 5.6907
516 26 12.8976 1.4403 4.2882 3.9855 0.0000 5.5819
517 26 11.4153 -0.0321 5.7567 4.4728 0.0000 5.0463
518 26 12.8864 1.4155 7.1856 5.4699 0.0000 6.4433
519 26 11.5090 0.0100 8.5749 5.3649 0.0000 6.1026
520 26 12.8983 1.4406 9.9974 5.3407 0.0000 6.3530
521 26 11.4487 -0.0273 11.4388 4.9072 0.0000 5.4873
522 26 12.9268 1.4483 12.8466 4.2275 0.0000 6.1849
523 26 11.4687 0.0436 14.3062 5.5412 0.0000 5.2177
524 26 12.9336 1.4549 15.7068 4.6962 0.0000 5.7853
525 26 11.4343 0.0341 17.2415 5.0677 0.0000 6.6252
526 26 12.8740 1.4175 18.6027 5.0119 0.0000 6.0474
527 26 11.5089 -0.0189 20.0914 3.8266 0.0000 6.4721
528 26 12.8846 1.4880 21.5148 4.0365 0.0000 5.7220
529 26 11.4481 2.8813 -0.0329 5.0194 0.0000 5.0025
530 26 12.8797 4.2865 1.3925 4.4740 0.0000 5.7288
531 26 11.4900 2.8843 2.8484 5.3416 0.0000 5.1822
532 26 12.9179 4.3165 4.3275 4.2699 0.0000 6.5815
533 26 11.4226 2.8290 5.7158 4.6994 0.0000 6.4525
534 26 12.8827 4.3225 7.1232 5.3611 0.0000 5.2099
535 26 11.4719 2.8439 8.5224 3.7675 0.0000 6.6853
536 26 12.8927 4.2747 10.0401 4.3719 0.0000 5.9189
537 26 11.4614 2.8691 11.4860 4.0909 0.0000 5.4499
538 26 12.8432 4.2699 12.8887 4.9648 0.0000 5.4823
539 26 11.5003 2.8261 14.3164 5.1128 0.0000 6.3310
540 26 12.8864 4.2892 15.7919 5.0481 0.0000 5.9317
541 26 11.4591 2.8461 17.1902 3.9096 0.0000 5.2014
542 26 12.8896 4.3005 18.6447 4.6435 0.0000 6.4258
543 26 11.4245 2.8473 20.0860 5.4968 0.0000 5.8577
544 26 12.9164 4.3209 21.4799 3.8339 0.0000 5.8708
545 26 11.4888 5.6909 -0.0132 4.3938 0.0000 6.2368
546 26 12.8609 7.1686 1.4361 5.1594 0.0000 5.9736
547 26 11.4744 5.7190 2.8309 4.5345 0.0000 5.2549
548 26 12.9089 7.1875 4.2700 4.7387 0.0000 5.5831
549 26 11.4596 5.7397 5.7640 3.8447 0.0000 5.2464
550 26 12.8715 7.1747 7.1201 4.8143 0.0000 5.6517
551 26 11.4968 5.7308 8.6594 4.8373 0.0000 5.8177
552 26 12.9288 7.2036 10.0035 4.1644 0.0000 5.3003
553 26 11.4668 5.6913 11.5093 3.9470 0.0000 5.1793
554 26 12.8548 7.1500 12.8646 5.1254 0.0000 5.7452
555 26 11.4603 5.7292 14.3523 5.1274 0.0000 5.4481
556 26 12.9385 7.1619 15.7779 3.9755 0.0000 6.2837
557 26 11.4920 5.7381 17.1973 4.8054 0.0000 5.8491
558 26 12.8823 7.1795 18.5973 3.9742 0.0000 5.5251
559 26 11.4986 5.7386 20.0881 4.0869 0.0000 5.5957
560 26 12.8847 7.1785 21.5422 4.1170 0.0000 5.1430
561 26 11.4542 8.5993 0.0268 3.9867 0.0000 5.0048
562 26 12.9271 10.0391 1.4362 4.3587 0.0000 4.9731
563 26 11.4375 8.6230 2.8084 5.1689 0.0000 5.3440
564 26 12.8766 10.0298 4.3032 4.0842 0.0000 5.2093
565 26 11.4504 8.5829 5.7888 4.5449 0.0000 5.4214
566 26 12.9259 9.9937 7.1406 4.1176 0.0000 6.5158
567 26 11.4417 8.6076 8.6321 4.7642 0.0000 6.6917
568 26 12.8642 10.0325 10.0302 3.8439 0.0000 4.9983
569 26 11.4772 8.5686 11.4468 5.1473 0.0000 5.5014
570 26 12.9329 10.0170 12.9326 4.6101 0.0000 5.5764
571 26 11.4755 8.6318 14.3565 4.8054 0.0000 5.3545
572 26 12.8659 10.0423 15.7740 5.3271 0.0000 5.9014
573 26 11.4274 8.6343 17.2120 4.7214 0.0000 6.3350
574 26 12.8983 10.0229 18.7147 5.0928 0.0000 5.8078
575 26 11.4698 8.6390 20.0256 4.6866 0.0000 5.5564
576 26 12.8948 10.0175 21.5271 5.1008 0.0000 5.2957
577 26 11.4543 11.4600 -0.0495 4.0642 0.0000 6.4292
578 26 12.9372 12.8884 1.4116 3.8801 0.0000 6.3765
579 26 11.5074 11.4404 2.8625 5.1721 0.0000 5.5144
580 26 12.9474 12.9245 4.2918 5.0272 0.0000 5.7469
581 26 11.4885 11.4697 5.7611 5.0837 0.0000 6.4658
582 26 12.8358 12.8710 7.2351 4.8245 0.0000 5.2378
583 26 11.4746 11.4855 8.6051 4.3837 0.0000 6.4165
584 26 12.9251 12.9287 10.0093 5.5643 0.0000 6.5080
585 26 11.4611 11.4902 11.4653 4.9512 0.0000 5.7243
586 26 12.8667 12.9253 12.8870 4.3176 0.0000 5.1082
587 26 11.4802 11.5297 14.3660 4.7606 0.0000 6.2553
588 26 12.9183 12.9002 15.7606 4.3441 0.0000 5.3351
589 26 11.4704 11.4668 17.2069 5.6451 0.0000 5.2292
590 26 12.9180 12.9088 18.6280 4.0110 0.0000 5.1134
591 26 11.4680 11.4486 20.0473 3.8343 0.0000 6.1261
592 26 12.8676 12.8889 21.5117 4.8975 0.0000 5.6202
593 26 11.4608 14.3082 -0.0153 4.8590 0.0000 6.1966