ITEM: TIMESTEP
0
ITEM: NUMBER OF ATOMS
864
ITEM: BOX BOUNDS pp pp pp
0.0 24.1918
0.0 24.1918
0.0 24.1918
ITEM: ATOMS id type x y z error strain stiffness
1 13 0.0712 -0.0636 -0.0374 5.8788 0.4312 11.3068
2 13 1.9976 1.9875 0.0860 6.7661 0.4656 10.4454
3 13 2.0056 -0.0126 2.0968 6.5941 0.4033 10.0920
4 13 0.0979 1.9448 1.9773 5.2476 0.4277 9.3056
5 13 -0.0287 -0.0393 4.0391 7.0412 0.4545 8.9997
6 13 2.0178 2.0449 3.9958 6.0851 0.4312 8.9179
7 13 1.9748 0.0087 6.0080 5.9766 0.4878 10.0839
8 13 0.1236 1.9851 6.0610 5.4958 0.4063 10.2807
9 13 0.0940 0.0351 8.0394 6.1049 0.4505 8.6262
10 13 2.0091 2.0532 8.0821 5.5342 0.4164 9.2120
11 13 2.0205 -0.0478 10.1098 5.1883 0.4254 10.7403
12 13 0.0529 1.9968 10.0762 5.3587 0.4621 9.5524
13 13 0.0206 -0.0292 12.1493 5.8682 0.4614 10.1321
14 13 1.9466 2.0102 12.1154 5.8488 0.4137 11.1269
15 13 1.9957 -0.0579 14.1064 6.8082 0.4868 10.4313
16 13 0.0258 2.0841 14.0799 6.6920 0.4249 10.1276
17 13 -0.1125 0.0122 16.0412 6.8931 0.4459 10.9661
18 13 2.0294 1.9922 16.1476 5.1053 0.4228 8.8687
19 13 1.9239 -0.0063 18.0906 5.2754 0.4188 8.5345
20 13 0.0210 2.0873 18.1483 6.1360 0.4500 11.0155
21 13 0.0659 0.0439 20.2194 6.6851 0.4594 10.9023
22 13 2.0031 2.0272 20.1150 6.8040 0.4082 8.7318
23 13 2.0463 -0.0319 22.2129 6.8038 0.4475 8.5482
24 13 -0.0116 1.9265 22.1173 5.4635 0.4865 9.3494
25 13 0.0164 4.0010 -0.0669 5.9871 0.4366 9.4871
26 13 1.9413 6.1258 -0.0122 6.6591 0.4173 11.0302
27 13 2.0439 4.1090 1.9140 6.9593 0.4391 11.3493
28 13 0.0202 6.0462 2.0295 7.0012 0.4797 11.0067
29 13 0.0351 4.0028 3.9533 6.3668 0.4871 9.4464
30 13 1.9777 6.0580 3.9564 5.5874 0.4743 9.5498
31 13 2.0176 3.9832 6.0129 6.4040 0.4230 8.8913
32 13 -0.1070 6.0502 6.0491 5.4758 0.4100 9.1429
33 13 0.0622 4.0660 8.0625 6.9330 0.4410 10.3811
34 13 2.0618 6.0474 8.0005 6.3791 0.4707 8.7322
35 13 1.9704 4.0123 10.1947 5.7471 0.4281 8.5179
36 13 -0.1122 6.0706 10.1072 6.6605 0.4779 11.2315
37 13 -0.0427 4.0535 12.0628 6.7095 0.4320 10.2564
38 13 2.0092 6.0809 12.1181 6.7143 0.4187 10.6896
39 13 1.9432 4.0084 14.1379 6.4298 0.4208 9.7650
40 13 -0.0370 6.0670 14.0792 5.5457 0.4826 9.5756
41 13 -0.0201 4.0454 16.1331 6.5145 0.4148 10.4805
42 13 1.9325 5.9945 16.0475 6.6073 0.4380 8.5059
43 13 2.0175 4.0216 18.1186 6.1575 0.4403 10.8517
44 13 0.0053 6.0508 18.1849 6.7093 0.4623 10.4675
45 13 0.0468 3.9555 20.2009 6.8212 0.4250 9.3992
46 13 2.0299 6.0456 20.1379 5.9971 0.4062 9.2115
47 13 1.9904 4.0397 22.1683 6.4591 0.4813 8.7101
48 13 0.0056 6.0077 22.2063 4.7900 0.4215 10.4346
49 13 0.0086 8.0720 -0.0368 6.8569 0.4793 8.4545
50 13 2.0118 10.0548 0.0780 6.8003 0.4179 9.2994
51 13 2.0744 8.1065 1.9957 6.2371 0.4531 8.8241
52 13 0.0120 10.1290 2.0397 5.5748 0.4329 9.4367
53 13 -0.0207 8.0862 4.0266 6.6264 0.4766 9.9325
54 13 1.9769 10.1390 4.0096 5.4855 0.4345 9.1417
55 13 2.0405 8.0082 6.0920 5.1081 0.4337 9.9120
56 13 0.0087 10.0793 6.0373 6.1394 0.4548 10.1672
57 13 0.0059 8.0330 8.0780 6.8375 0.4318 10.1369
58 13 1.9775 10.0981 8.0012 7.0715 0.4303 10.2545
59 13 1.9943 8.0405 10.0718 4.8653 0.4649 10.1801
60 13 0.0235 10.0241 10.2311 5.1187 0.4366 9.6567
61 13 -0.0026 8.0445 12.1525 6.4708 0.4126 10.1572
62 13 2.1016 10.0798 12.0961 4.9125 0.4181 9.7673
63 13 1.9414 8.0485 14.1160 6.5431 0.4436 9.0652
64 13 -0.0425 10.1398 14.0778 5.0256 0.4191 10.3703
65 13 0.0124 8.1459 16.0746 4.8759 0.4127 9.3409
66 13 2.0845 10.0780 16.1949 6.9509 0.4660 9.1307
67 13 2.0614 8.1154 18.0851 5.5467 0.4899 10.9434
68 13 0.0044 10.0744 18.1387 5.6324 0.4059 9.0084
69 13 -0.0014 8.1833 20.1767 6.6901 0.4087 11.1847
70 13 2.0458 10.0554 20.1378 6.8912 0.4462 10.5566
71 13 2.0342 8.1095 22.1855 5.1514 0.4691 9.2423
72 13 -0.0303 10.0685 22.1510 4.7820 0.4119 10.9764
73 13 0.0263 12.1094 -0.0655 5.7594 0.4359 8.6176
74 13 2.0980 14.0942 -0.0106 5.0747 0.4293 9.2185
75 13 2.0531 12.0178 2.0266 4.9923 0.4014 8.9575
76 13 -0.0313 14.0653 1.9599 6.9471 0.4420 10.3415
77 13 -0.0393 12.0200 3.9851 5.5797 0.4294 11.2902
78 13 2.0200 14.0876 4.0799 6.7119 0.4144 9.0272
79 13 1.9434 12.0681 6.0473 6.6204 0.4264 10.6587
80 13 -0.0213 14.0672 6.0346 6.6100 0.4594 10.3479
81 13 -0.0768 12.0860 8.0968 5.4465 0.4197 9.8641
82 13 2.0206 14.0901 8.0849 5.0422 0.4097 9.3564
83 13 1.9990 12.1127 10.1631 6.4595 0.4415 10.4691
84 13 -0.0300 14.1610 10.0398 6.0197 0.4098 10.5412
85 13 0.0393 12.1092 12.1097 6.8367 0.4212 8.9638
86 13 1.9465 14.1116 12.0842 5.9420 0.4724 9.5257
87 13 1.9826 12.1785 14.0874 5.9949 0.4322 8.6565
88 13 -0.0561 14.1662 14.0956 7.0290 0.4110 10.0028
89 13 -0.0126 12.1803 16.1013 6.3426 0.4021 8.6151
90 13 2.0086 14.1626 16.1260 6.2833 0.4314 9.9395
91 13 1.9800 12.0975 18.1639 4.8446 0.4028 9.9138
92 13 0.0561 14.1615 18.2104 5.9811 0.4225 9.5603
93 13 0.0216 12.1436 20.1660 4.7873 0.4180 10.8486
94 13 2.0086 14.0730 20.1982 6.5899 0.4572 8.8748
95 13 1.9970 12.0376 22.1607 5.4756 0.4292 10.9580
96 13 -0.0304 14.1240 22.1755 5.0463 0.4101 11.1180
97 13 0.1443 16.1277 0.0789 6.9262 0.4426 10.1119
98 13 2.0594 18.1936 -0.0707 6.7270 0.4351 8.9924
99 13 2.0228 16.2011 2.0211 5.8040 0.4319 9.1262
100 13 -0.0442 18.1322 2.0347 4.7487 0.4669 8.8870
101 13 -0.0433 16.0594 3.9672 5.6896 0.4483 10.6585
102 13 1.9683 18.1546 4.0602 6.1168 0.4761 10.5545
103 13 2.0166 16.1501 6.0949 5.1407 0.4665 9.5306
104 13 0.0119 18.1210 6.1276 5.4140 0.4833 9.7273
105 13 -0.0219 16.1499 8.0992 5.4926 0.4124 9.6247
106 13 2.0002 18.2493 8.0420 6.2096 0.4286 9.4181
107 13 2.1094 16.0919 10.1095 5.3019 0.4638 8.5933
108 13 0.0453 18.1572 9.9853 6.3753 0.4716 10.3244
109 13 0.0218 16.1685 12.1165 5.8296 0.4496 10.1975
110 13 2.0310 18.1292 12.1049 5.6842 0.4514 9.0510
111 13 1.9972 16.1643 14.0438 5.6953 0.4298 10.6575
112 13 0.0382 18.1550 14.0805 5.9373 0.4406 10.4582
113 13 0.0217 16.0574 16.1873 6.0117 0.4624 10.6709
114 13 1.9458 18.1388 16.1086 6.4287 0.4159 8.7187
115 13 1.9323 16.0839 18.1536 4.9200 0.4805 9.2406
116 13 -0.0252 18.1602 18.0788 5.1708 0.4769 9.6336
117 13 -0.0803 16.0928 20.1763 6.9162 0.4452 9.5634
118 13 1.9371 18.1553 20.2683 5.2907 0.4283 9.4807
119 13 2.0220 16.1385 22.1515 4.9936 0.4141 10.8146
120 13 -0.0371 18.2218 22.2313 6.4408 0.4541 9.1126
121 13 -0.0046 20.1080 0.0027 5.9714 0.4103 10.1886
122 13 2.0201 22.0807 -0.0867 7.0894 0.4257 9.3808
123 13 2.0094 20.1350 1.9410 5.7140 0.4282 10.0169
124 13 0.0092 22.2296 2.0840 5.3212 0.4756 10.8916
125 13 0.0247 20.1386 4.0674 4.8274 0.4861 9.5791
126 13 1.9868 22.1517 4.0742 5.2198 0.4855 11.0840
127 13 2.0925 20.0992 6.0050 5.2451 0.4164 10.1586
128 13 -0.0032 22.1333 6.0140 5.9235 0.4265 8.7134
129 13 -0.0263 20.3022 8.1251 6.2011 0.4568 10.6732
130 13 2.1047 22.1562 8.0666 5.7443 0.4279 11.2513
131 13 2.0266 20.1861 10.0737 5.3644 0.4193 9.0812
132 13 0.0227 22.1822 10.0233 6.2568 0.4231 9.6735
133 13 0.0693 20.2118 12.0775 6.0641 0.4406 9.7909
134 13 2.0485 22.2246 12.1484 5.8772 0.4733 9.1162
135 13 1.9474 20.1296 14.1318 4.8939 0.4497 9.7485
136 13 -0.1240 22.1409 14.0997 5.2937 0.4350 8.7351
137 13 0.0267 20.1745 16.1754 6.0715 0.4364 11.0614
138 13 2.0275 22.2397 16.0680 6.5928 0.4429 8.7552
139 13 2.0056 20.1572 18.0934 6.0050 0.4100 10.5662
140 13 -0.0668 22.1398 18.1807 5.8652 0.4438 11.1373
141 13 0.0360 20.2178 20.1724 4.7732 0.4232 10.2025
142 13 2.0765 22.2112 20.1476 6.2731 0.4067 9.3264
143 13 2.0420 20.1510 22.2008 6.0216 0.4616 9.6225
144 13 -0.0244 22.1782 22.1631 4.8030 0.4224 10.7529
145 13 4.0287 0.0583 0.0978 5.1002 0.4076 10.1839
146 13 6.0489 2.0142 0.0672 5.8810 0.4463 9.6992
147 13 6.0680 0.0453 2.0583 6.6681 0.4185 9.3020
148 13 3.9773 1.9819 2.0100 5.8907 0.4464 9.1851
149 13 4.0625 0.0071 4.0109 5.8473 0.4514 10.0738
150 13 6.0219 2.0061 4.0381 6.5225 0.4071 9.0351
151 13 6.0432 -0.0733 6.0241 5.3647 0.4204 8.6762
152 13 3.9856 2.0067 5.9453 6.1926 0.4785 10.2209
153 13 4.0242 -0.0736 8.0872 7.0907 0.4518 10.6520
154 13 5.9659 2.0304 8.0450 6.1254 0.4862 10.5944
155 13 5.9233 0.0528 10.1576 6.1583 0.4157 9.8253
156 13 4.0032 2.0699 10.0621 5.5555 0.4362 10.9470
157 13 4.0219 0.0428 11.9852 6.3689 0.4782 9.9047
158 13 6.0528 2.0116 12.0992 6.4141 0.4786 10.9619
159 13 6.0667 -0.0221 14.0749 4.7702 0.4664 10.4194
160 13 4.0045 2.0371 14.1992 5.8309 0.4596 10.3800
161 13 3.9800 0.0288 16.1202 6.1602 0.4549 9.7730
162 13 6.0075 2.0487 16.1035 5.5631 0.4363 11.0154
163 13 5.9256 0.0542 18.0631 4.8977 0.4063 10.9546
164 13 4.0046 2.0449 18.1777 6.2452 0.4724 10.7337
165 13 4.0104 -0.0983 20.1548 5.7077 0.4819 8.4450
166 13 5.9945 2.0384 20.1279 6.5553 0.4290 9.8281
167 13 5.9993 0.0006 22.1958 6.0483 0.4419 9.0672
168 13 4.0408 2.0013 22.2063 5.5640 0.4697 9.1824
169 13 4.0988 3.9971 -0.0039 5.3955 0.4620 9.1974
170 13 5.9985 6.0202 0.0078 5.3330 0.4651 10.8857
171 13 5.9851 3.9531 2.0442 5.2769 0.4311 9.0682
172 13 4.0467 6.0403 2.0369 6.8240 0.4840 10.1189
173 13 3.9845 4.0173 4.0854 6.6098 0.4813 10.4917
174 13 6.0589 6.0492 4.0108 6.5701 0.4061 11.2584
175 13 5.9968 4.0932 6.0962 5.5919 0.4267 9.1396
176 13 4.0249 5.9323 5.9325 5.3949 0.4055 11.1876
177 13 4.0722 4.0158 8.1083 5.3953 0.4281 9.7250
178 13 5.9537 6.0263 8.0526 6.7935 0.4723 8.9194
179 13 6.0017 4.0957 10.1857 5.0259 0.4301 9.6524
180 13 4.1090 6.0446 10.0029 5.8914 0.4413 11.3415
181 13 3.9972 4.0247 12.1308 5.1698 0.4774 10.9598
182 13 6.0422 6.0577 12.1230 5.1527 0.4478 8.6178
183 13 6.0838 4.0592 14.2331 4.8337 0.4419 11.2074
184 13 4.0231 6.0398 14.1119 6.3966 0.4469 8.8851
185 13 3.9549 4.0043 16.1176 6.3999 0.4141 11.0276
186 13 6.0466 5.9887 16.1248 5.1190 0.4371 11.2675
187 13 5.9913 4.1174 18.1153 5.8173 0.4109 9.4387
188 13 4.0355 5.9862 18.1191 5.8499 0.4242 9.8217
189 13 4.0556 4.0654 20.1329 5.2185 0.4166 11.0607
190 13 6.0263 6.0380 20.1185 4.8698 0.4069 8.7336
191 13 6.0095 4.0791 22.2718 4.7897 0.4727 8.8847
192 13 3.9629 6.0117 22.2240 5.1300 0.4260 10.9575
193 13 4.0414 8.0581 -0.0102 6.7226 0.4713 9.9588
194 13 6.0918 10.0501 -0.0082 4.8142 0.4677 10.3785
195 13 6.1261 8.1692 2.0580 5.2289 0.4571 9.6564
196 13 4.0742 10.0764 2.0073 5.3452 0.4294 10.8980
197 13 4.0638 8.0973 4.0102 4.8008 0.4333 8.7937
198 13 6.1368 10.1208 3.9598 6.4941 0.4585 10.3014
199 13 6.0744 8.1150 6.1017 6.0594 0.4831 10.6183
200 13 4.0617 10.0066 6.0363 7.0477 0.4351 10.4423
201 13 3.9517 8.0389 8.0782 5.2718 0.4826 10.9406
202 13 6.0492 10.0590 8.1016 6.1441 0.4795 10.2987
203 13 5.9954 8.0099 10.0136 5.0650 0.4804 10.1835
204 13 4.0424 10.0392 10.0351 5.9136 0.4474 11.0620
205 13 4.1339 8.0996 12.1090 6.7783 0.4377 11.2890
206 13 6.0546 10.1589 12.0558 5.4686 0.4762 9.7255
207 13 6.0061 8.0940 14.0563 6.1926 0.4110 10.2972
208 13 3.9392 10.1244 14.2382 7.0019 0.4883 11.3383
209 13 4.0305 8.0329 16.2342 6.9552 0.4025 10.5974
210 13 6.0479 10.0811 16.0761 5.3925 0.4473 8.7767
211 13 6.0556 8.0982 18.1892 5.4520 0.4769 10.3823
212 13 4.0340 10.0700 18.1096 5.7271 0.4126 9.0104
213 13 4.1135 8.0214 20.1272 7.0696 0.4766 10.7519
214 13 6.1052 10.1633 20.1651 6.8979 0.4152 10.8549
215 13 6.0703 8.0905 22.1875 6.1825 0.4401 10.0577
216 13 3.9657 10.0833 22.2288 4.9993 0.4286 8.6731
217 13 4.0497 12.1598 0.0647 4.7893 0.4045 9.1302
218 13 6.1102 14.1087 0.0131 6.0678 0.4320 10.6848
219 13 5.9799 12.1389 2.0665 6.0462 0.4324 10.3244
220 13 3.9737 14.1257 2.0162 6.2456 0.4635 10.8536
221 13 3.9898 12.1069 3.9914 5.1202 0.4573 10.9001
222 13 6.0614 14.1395 4.0834 5.9120 0.4019 8.9399
223 13 6.0866 12.1462 6.1572 6.1478 0.4125 10.7919
224 13 4.0984 14.0993 5.9950 5.1922 0.4827 10.4074
225 13 4.0850 12.1512 8.0614 5.1306 0.4468 8.8823
226 13 6.0756 14.1440 8.0140 5.9854 0.4171 9.3089
227 13 5.9972 12.1654 10.1171 6.1555 0.4478 11.3232
228 13 3.9785 14.0587 10.1163 6.5261 0.4482 8.5404
229 13 4.0368 12.0856 12.0320 5.0863 0.4424 9.0767
230 13 6.0823 14.1124 12.1261 5.3467 0.4691 9.6179
231 13 6.0080 12.0651 14.0990 5.0053 0.4105 8.6619
232 13 4.0531 14.0474 14.1516 5.5075 0.4067 9.4802
233 13 4.0326 12.1903 16.1572 5.9679 0.4678 9.6563
234 13 6.1021 14.1414 16.1955 5.8261 0.4494 9.7465
235 13 5.9931 12.0360 18.1095 4.7434 0.4898 11.0618
236 13 4.1186 14.0456 18.1608 7.0772 0.4812 10.7112
237 13 4.0239 12.1088 20.1541 6.3396 0.4029 9.7232
238 13 6.1313 14.0974 20.2084 7.0186 0.4658 8.6217
239 13 6.1437 12.1086 22.2255 7.0859 0.4728 9.9379
240 13 4.0609 14.2334 22.1446 5.5413 0.4530 8.4572
241 13 3.9699 16.0662 -0.0243 6.2224 0.4359 8.7208
242 13 6.0930 18.1667 -0.0302 5.2326 0.4709 8.5856
243 13 6.0319 16.1300 1.9996 4.7981 0.4207 10.2113
244 13 4.0465 18.1673 1.9329 4.8981 0.4753 10.6829
245 13 4.0846 16.1900 4.0215 6.2586 0.4677 10.3049
246 13 6.1819 18.1018 4.0184 6.3814 0.4659 8.8176
247 13 6.0570 16.1201 6.0246 5.1927 0.4646 10.5464
248 13 4.0508 18.1519 6.1710 6.2607 0.4653 11.1566
249 13 4.0194 16.1515 8.0963 6.9069 0.4561 8.8683
250 13 6.0980 18.0216 8.0934 6.1911 0.4252 9.6327
251 13 6.0636 16.1558 10.0853 6.4635 0.4689 10.1602
252 13 4.0751 18.1911 10.0572 6.1691 0.4496 11.3191
253 13 4.0708 16.1196 12.1404 4.9728 0.4276 8.7293
254 13 6.1041 18.0727 12.0777 6.1226 0.4101 9.1598
255 13 6.1070 16.1135 14.0010 5.5965 0.4049 8.4859
256 13 3.9676 18.1624 14.1392 4.9100 0.4101 8.7027
257 13 3.9482 16.1106 16.1801 4.8083 0.4834 9.6494
258 13 5.9919 18.1102 16.1462 6.6873 0.4698 10.1064
259 13 5.9205 16.0985 18.2148 5.2917 0.4868 9.4738
260 13 3.9635 18.2030 18.0778 5.1934 0.4406 10.7820
261 13 4.1367 16.0893 20.1556 7.0365 0.4858 8.5055
262 13 6.0604 18.1997 20.1677 5.1995 0.4109 8.5528
263 13 6.0888 16.0640 22.1524 5.1019 0.4043 10.3032
264 13 4.0914 18.2496 22.1464 5.5607 0.4435 11.0155
265 13 4.0918 20.2119 0.0164 5.2283 0.4527 10.9376
266 13 6.1469 22.1893 0.0612 5.8596 0.4433 9.7654
267 13 6.0545 20.1892 2.0288 5.3365 0.4159 10.4514
268 13 4.0129 22.1641 2.0480 5.8623 0.4781 10.2356
269 13 4.0258 20.1899 3.9997 6.4061 0.4236 10.1914
270 13 6.0031 22.1592 4.0181 7.0189 0.4409 9.1227
271 13 6.0759 20.1261 6.0707 6.6315 0.4703 9.7018
272 13 4.0284 22.1084 6.0310 6.4346 0.4625 10.9549
273 13 4.0260 20.1289 8.0642 5.4021 0.4634 9.8861
274 13 6.0373 22.1783 8.0554 5.2946 0.4564 9.2547
275 13 6.0788 20.0442 10.1219 6.3054 0.4139 10.8610
276 13 3.9938 22.2370 10.0946 5.3851 0.4073 9.3627
277 13 4.0530 20.1620 12.0809 6.8736 0.4331 11.1468
278 13 6.0418 22.1986 12.1792 5.1226 0.4106 8.8769
279 13 6.0794 20.2153 14.1552 7.0703 0.4234 8.7018
280 13 4.0731 22.1358 14.0948 5.0965 0.4471 9.9057
281 13 3.9660 20.0876 16.1399 5.7397 0.4271 10.3017
282 13 6.0806 22.0622 16.1728 6.3646 0.4206 9.5506
283 13 6.1378 20.1493 18.1725 7.0450 0.4371 9.7589
284 13 4.0265 22.2250 18.1054 6.2427 0.4173 9.1907
285 13 4.0122 20.1744 20.2179 5.6009 0.4373 11.1184
286 13 6.0783 22.2027 20.1977 5.9805 0.4841 9.3967
287 13 6.0889 20.1375 22.1417 7.0463 0.4105 10.6386
288 13 4.0494 22.1651 22.1482 6.9497 0.4088 9.9256
289 13 8.0748 -0.0220 -0.0088 6.1607 0.4021 10.5038
290 13 10.1598 2.0077 -0.0703 5.6510 0.4139 8.6378
291 13 10.0234 -0.0013 1.9320 6.8794 0.4394 9.7377
292 13 8.0548 2.0022 2.0462 5.1080 0.4181 9.8181
293 13 8.1029 -0.0213 3.9763 6.9866 0.4789 8.6527
294 13 9.9864 2.0745 3.9729 4.9824 0.4769 9.3157
295 13 10.0692 -0.1081 6.0509 5.5588 0.4165 9.2828
296 13 8.0078 1.9676 6.0874 4.9263 0.4519 9.2810
297 13 8.0388 -0.0170 8.0393 5.2133 0.4840 9.8655
298 13 10.1151 2.0160 8.0555 5.5293 0.4212 9.7060
299 13 10.1130 0.0224 10.0630 6.6987 0.4155 9.0211
300 13 8.0961 1.9857 10.0807 5.8959 0.4358 9.2694
301 13 8.1606 -0.0996 12.0834 6.1033 0.4584 9.4131
302 13 9.9983 2.0708 12.1668 5.0960 0.4534 10.7439
303 13 9.9662 0.0043 14.1754 5.7505 0.4508 8.5389
304 13 8.0433 2.0434 14.0638 5.9284 0.4220 10.9070
305 13 8.1063 0.0590 16.0970 6.6850 0.4803 9.7813
306 13 10.0100 1.9693 16.1366 5.7519 0.4460 8.5977
307 13 10.0007 0.0139 18.1056 5.4302 0.4716 10.3230
308 13 8.0647 1.9976 18.1357 5.5799 0.4326 9.2162
309 13 8.0217 0.0417 20.1432 5.0335 0.4392 10.4995
310 13 10.1346 1.9601 20.1198 6.1024 0.4754 11.1349
311 13 10.1559 -0.0263 22.1764 6.3743 0.4816 11.0023
312 13 8.0852 1.9988 22.2047 6.3207 0.4406 8.4910
313 13 8.0330 4.0210 -0.0611 5.6162 0.4179 8.8796
314 13 10.0793 6.1121 0.1215 5.5889 0.4083 10.8668
315 13 10.0776 3.9806 1.9447 6.4711 0.4368 8.7248
316 13 8.0545 6.0829 2.0278 4.8956 0.4129 10.9723
317 13 8.0253 4.0846 3.9519 5.8265 0.4191 8.4538
318 13 10.2062 6.0418 4.0610 6.7849 0.4229 10.1870
319 13 9.9838 4.0176 6.0644 4.9891 0.4794 11.2752
320 13 8.1326 6.0536 6.0791 6.7523 0.4532 9.3856
321 13 7.9925 4.0475 8.0856 4.8484 0.4752 9.0769
322 13 10.0443 5.9640 8.0231 5.3521 0.4106 9.3363
323 13 10.0293 3.9811 10.0722 6.0818 0.4729 9.6509
324 13 8.0730 6.0128 10.0598 5.0206 0.4421 10.6245
325 13 8.0719 4.0176 12.1851 5.4607 0.4845 8.4763
326 13 10.0598 6.1149 12.0654 6.7544 0.4529 9.2314
327 13 10.0772 4.0285 14.1959 6.2451 0.4123 9.6281
328 13 8.0632 6.0368 14.1658 6.0175 0.4130 9.3770
329 13 8.0363 4.0381 16.1299 6.6946 0.4825 11.2574
330 13 10.1410 6.1114 16.1376 5.4491 0.4567 10.9205
331 13 10.0671 4.0313 18.1352 5.6557 0.4820 8.9665
332 13 8.0260 5.9906 18.1912 6.8365 0.4494 11.1963
333 13 8.0958 4.0064 20.1204 5.0792 0.4329 11.3558
334 13 10.1426 5.9943 20.1720 6.7826 0.4867 9.8637
335 13 10.1041 3.9546 22.1621 5.6267 0.4124 10.8623
336 13 8.1043 6.0718 22.2291 6.9452 0.4320 9.1782
337 13 8.1062 8.0970 0.0487 5.6382 0.4122 8.9533
338 13 10.0217 10.0533 0.0608 6.9279 0.4536 11.2083
339 13 10.0641 8.0338 1.9407 5.4723 0.4757 10.5149
340 13 8.0916 10.1102 2.0049 5.5207 0.4783 8.6850
341 13 8.1155 8.0970 4.0170 6.9431 0.4369 11.3241
342 13 10.0491 10.1103 4.1342 4.8095 0.4672 9.6855
343 13 10.1473 8.0871 6.0955 6.6346 0.4669 9.3838
344 13 8.0700 10.1551 6.0619 6.1990 0.4222 10.1919
345 13 8.0451 7.9428 8.0312 5.2284 0.4240 10.4264
346 13 10.1147 10.1158 8.0392 5.8006 0.4538 11.0515
347 13 10.1070 8.0899 10.0071 5.9834 0.4595 10.7940
348 13 8.0990 10.0383 10.1036 5.9065 0.4157 9.7381
349 13 8.0964 8.0677 12.1323 5.4936 0.4826 9.8255
350 13 10.1363 10.0651 12.0523 6.8490 0.4440 9.0575
351 13 10.0288 8.0802 14.0863 4.8103 0.4446 9.3453
352 13 8.0298 10.1311 14.1567 5.3155 0.4692 9.5138
353 13 8.0538 8.0461 16.0877 4.9115 0.4528 9.9265
354 13 10.1097 10.0583 16.1927 5.3172 0.4412 10.4612
355 13 9.9886 8.0251 18.1346 5.2034 0.4764 8.5415
356 13 8.0516 10.0525 18.1314 6.0274 0.4588 10.1863
357 13 8.0431 8.0903 20.0904 5.7542 0.4840 10.2713
358 13 10.1038 10.1217 20.2112 6.8016 0.4538 10.5685
359 13 10.1519 8.0658 22.1483 6.0712 0.4447 10.5258
360 13 8.0205 10.0257 22.1766 5.4652 0.4767 9.9800
361 13 8.0872 12.0614 -0.0794 5.9466 0.4728 10.7371
362 13 10.1008 14.0807 -0.0190 6.4669 0.4034 9.4478
363 13 10.1064 12.0812 2.0321 7.0558 0.4828 8.5081
364 13 8.0250 14.1299 2.0385 5.3113 0.4409 10.2924
365 13 8.1006 12.0317 4.0473 6.1832 0.4038 9.1859
366 13 10.0549 14.1480 4.1070 5.1606 0.4101 9.4245
367 13 10.1206 12.0452 6.0967 5.5820 0.4716 11.3094
368 13 8.0687 14.1099 6.0783 6.5062 0.4695 10.2086
369 13 8.1082 12.0662 8.0968 6.3380 0.4786 11.2272
370 13 10.0509 14.1274 8.1220 5.1606 0.4280 9.9312
371 13 10.1114 12.1273 10.1504 6.0191 0.4488 9.2635
372 13 8.0854 14.0897 10.0446 6.0881 0.4757 9.5191
373 13 8.0557 12.1138 12.0936 5.2333 0.4835 9.4762
374 13 10.2098 14.0804 12.1320 5.0641 0.4753 11.1200
375 13 10.0495 12.0697 14.0881 6.5894 0.4762 10.1946
376 13 8.0864 14.0554 14.0729 6.2705 0.4740 10.6617
377 13 8.0343 12.1734 16.1034 5.8941 0.4127 10.7543
378 13 10.0570 14.1668 16.1271 5.7608 0.4749 9.2038
379 13 10.0563 12.0612 18.1869 5.1503 0.4831 10.1948
380 13 8.0579 14.0962 18.1157 4.7310 0.4139 9.5117
381 13 8.0330 12.1060 20.1430 5.8385 0.4843 8.5638
382 13 9.9472 14.1068 20.1914 5.3359 0.4769 9.9637
383 13 10.1482 12.0677 22.1738 6.7508 0.4826 9.7063
384 13 8.0674 14.0906 22.2031 4.8229 0.4568 9.4756
385 13 8.1132 16.1345 0.0740 6.9717 0.4617 8.5377
386 13 10.0799 18.1981 0.0471 5.1061 0.4832 10.9363
387 13 10.1550 16.1305 1.9757 6.7892 0.4176 9.6557
388 13 8.0182 18.2009 2.0072 6.0098 0.4551 11.0503
389 13 8.0258 16.1566 4.0786 5.0550 0.4803 10.1635
390 13 10.0802 18.0714 4.0370 5.2478 0.4103 10.3669
391 13 10.0877 16.1419 5.9863 6.8758 0.4301 11.0877
392 13 8.0800 18.0628 5.9938 5.9500 0.4407 8.5245
393 13 8.0340 16.0852 8.0654 6.4070 0.4336 8.8196
394 13 10.1107 18.1663 8.0575 6.7000 0.4098 11.0540
395 13 10.0580 16.1454 10.0041 5.4053 0.4218 9.4181
396 13 8.1354 18.1367 10.0972 7.0670 0.4631 11.2703
397 13 8.0850 16.1723 12.0697 4.7975 0.4472 9.3293
398 13 10.1784 18.1893 12.1208 6.0250 0.4582 9.1333
399 13 10.0529 16.2194 14.1148 6.0518 0.4263 10.4545
400 13 8.1028 18.1154 14.1269 6.6716 0.4328 8.8041
401 13 8.0050 16.0333 16.0949 4.9046 0.4882 10.3450
402 13 10.1816 18.2024 16.1975 5.8967 0.4534 8.7544
403 13 10.0647 16.0709 18.1851 6.0652 0.4121 10.5599
404 13 8.0925 18.1497 18.1288 6.4391 0.4827 9.8537
405 13 8.0856 16.2034 20.2037 6.6547 0.4811 9.5301
406 13 10.0649 18.1194 20.2162 6.6673 0.4663 9.2632
407 13 10.1850 16.1312 22.0992 6.2613 0.4658 11.3326
408 13 8.0231 18.2887 22.1245 6.5467 0.4111 11.0201
409 13 7.9940 20.1591 -0.0300 6.7856 0.4096 9.1009
410 13 10.0450 22.2102 0.0143 5.2575 0.4128 8.9475
411 13 10.1056 20.1978 2.0837 7.0688 0.4490 10.5055
412 13 8.0790 22.1834 2.0147 5.0953 0.4235 10.5178
413 13 8.0255 20.1967 4.0619 4.9911 0.4335 10.4569
414 13 10.0540 22.2414 4.1055 6.6440 0.4077 10.0626
415 13 10.0752 20.1807 6.0978 5.7270 0.4875 10.0202
416 13 8.0353 22.1685 5.9848 6.5740 0.4040 9.7670
417 13 8.0189 20.1066 8.0130 5.2376 0.4349 9.5596
418 13 10.1593 22.1480 8.0578 6.4430 0.4070 9.8272
419 13 10.0215 20.0402 10.1426 5.4523 0.4883 8.7422
420 13 8.0322 22.1880 10.0735 6.6730 0.4812 10.0709
421 13 8.0786 20.1946 12.0596 6.9631 0.4033 8.6305
422 13 9.9974 22.1054 12.0257 4.8126 0.4403 9.6262
423 13 10.0423 20.1944 14.1679 5.9774 0.4192 11.3277
424 13 7.9838 22.2253 14.0960 6.1298 0.4584 9.2463
425 13 7.9513 20.1830 16.0645 6.4292 0.4500 11.4038
426 13 10.0861 22.2441 16.0731 5.1922 0.4040 11.4087
427 13 10.0024 20.2039 18.1035 6.6656 0.4118 10.5962
428 13 8.0520 22.1361 18.1714 6.7163 0.4772 9.5416
429 13 8.1098 20.1655 20.2194 6.3690 0.4499 9.5952
430 13 10.1123 22.0719 20.1309 7.0438 0.4654 8.5652
431 13 10.0803 20.1941 22.3026 5.5482 0.4703 9.8915
432 13 8.0267 22.1513 22.1653 6.4696 0.4150 10.2882
433 13 12.0304 -0.0287 0.0820 5.7820 0.4429 9.4249
434 13 14.0586 1.9904 -0.0047 5.3305 0.4865 8.7470
435 13 14.1299 -0.0623 2.0955 6.3680 0.4205 9.0065
436 13 11.9881 1.8914 2.0217 6.4716 0.4592 11.1010
437 13 12.1353 0.0933 4.0441 6.1244 0.4107 10.5783
438 13 14.1108 2.0025 4.1243 5.6039 0.4148 9.7230
439 13 14.1046 -0.0266 6.0236 6.8617 0.4181 9.3453
440 13 12.0956 1.9904 6.0165 4.7621 0.4426 11.2608
441 13 11.9879 0.0364 8.1029 5.9791 0.4513 11.3422
442 13 14.0859 2.0579 8.0937 6.1942 0.4876 10.2174
443 13 13.9937 -0.0252 10.0746 7.0261 0.4267 10.6967
444 13 12.0710 1.9821 10.0646 4.9229 0.4166 9.8104
445 13 12.0832 -0.0020 12.1004 6.0502 0.4563 8.5686
446 13 14.1142 1.9778 12.0525 6.0910 0.4881 9.5335
447 13 14.0959 0.0248 14.1476 6.1510 0.4183 9.2334
448 13 11.9925 2.0714 14.1145 5.3294 0.4150 11.1894
449 13 12.0621 0.0821 16.1832 5.9473 0.4535 10.8871
450 13 14.1433 2.0291 16.1410 4.7409 0.4822 9.6922
451 13 14.0182 0.0107 18.1939 6.8770 0.4771 11.0355
452 13 12.1024 2.0235 18.1156 6.0147 0.4057 11.0435
453 13 12.0164 0.0286 20.1547 5.7169 0.4863 10.8687
454 13 14.0386 1.9372 20.1966 5.4254 0.4654 9.7663
455 13 14.1365 -0.1090 22.2542 5.0579 0.4704 10.2391
456 13 12.0273 2.0404 22.1938 4.9576 0.4329 10.8322
457 13 12.1184 4.0549 -0.0035 5.2475 0.4581 8.7262
458 13 14.1062 6.0644 -0.0374 4.8455 0.4711 11.1090
459 13 14.0516 4.0426 1.9943 5.1469 0.4895 8.9386
460 13 12.0814 6.0230 1.9625 6.2747 0.4754 9.7231
461 13 12.0831 4.0374 4.0600 5.1480 0.4358 9.5150
462 13 14.0672 6.0845 3.9517 4.7392 0.4723 10.0267
463 13 14.0700 4.0619 6.0176 5.5938 0.4889 10.1667
464 13 12.1027 6.0675 6.0007 6.3315 0.4528 10.4233
465 13 12.0531 4.0356 8.0010 4.8134 0.4460 11.2466
466 13 14.2002 6.0889 8.0755 5.4245 0.4205 11.2869
467 13 14.0600 3.9680 10.1667 6.2033 0.4445 10.5573
468 13 12.0985 6.0507 10.0790 7.0576 0.4246 9.9463
469 13 12.0866 4.0194 12.1982 5.8605 0.4143 9.5875
470 13 14.1642 6.0425 12.1153 6.0714 0.4249 8.9759
471 13 14.1489 4.1039 14.0721 6.8733 0.4833 11.1785
472 13 12.0641 5.9785 14.1146 6.5010 0.4127 9.4232
473 13 12.0648 3.9596 16.1622 6.0905 0.4882 9.7337
474 13 14.1033 6.1004 16.1202 4.8587 0.4354 9.7420
475 13 14.1272 4.1361 18.2051 5.1795 0.4762 11.1699
476 13 12.1112 6.0485 18.1949 5.3596 0.4800 9.5863
477 13 12.0544 4.0258 20.0949 5.4393 0.4315 9.4478
478 13 14.1508 6.0395 20.2437 6.7927 0.4450 10.4744
479 13 14.1105 4.0260 22.1653 5.9361 0.4152 9.1272
480 13 12.1510 6.0561 22.1633 6.3199 0.4413 11.2640
481 13 12.1225 8.0826 0.0462 6.8623 0.4254 11.3802
482 13 14.0888 10.0131 -0.0363 6.7659 0.4423 8.4806
483 13 14.1201 8.0504 2.0185 5.1348 0.4312 8.9794
484 13 12.0460 10.0043 2.0208 5.6765 0.4612 10.9841
485 13 12.0684 8.1113 3.9612 5.7470 0.4883 10.3437
486 13 14.0729 10.1180 4.0188 6.5686 0.4051 9.8003
487 13 14.1388 8.0369 5.9810 5.4379 0.4129 8.8784
488 13 12.0363 10.0644 6.0107 7.0185 0.4789 10.6157
489 13 12.1721 8.0956 8.0944 6.2854 0.4459 11.0878
490 13 14.0901 10.0114 8.1240 4.8190 0.4888 10.4435
491 13 14.1518 8.0394 10.0767 5.1993 0.4506 10.4838
492 13 12.0639 9.9834 10.0650 6.5404 0.4059 9.1227
493 13 12.1271 8.0860 12.1789 5.0284 0.4182 8.8678
494 13 14.0501 10.1664 12.1929 5.5424 0.4123 11.4075
495 13 14.1249 8.1512 14.1512 4.9664 0.4184 9.0513
496 13 12.1180 10.1380 14.1323 6.4959 0.4497 11.0394
497 13 12.0934 8.0704 16.2267 5.8678 0.4408 11.1241
498 13 14.1098 10.1086 16.1705 5.6295 0.4294 8.8862
499 13 14.0567 7.9626 18.1328 6.9814 0.4685 10.1812
500 13 12.0481 10.0621 18.2063 6.8970 0.4054 9.7370
501 13 12.0186 8.0828 20.1706 5.4366 0.4553 10.1901
502 13 14.0468 10.0679 20.2306 5.5813 0.4446 9.5550
503 13 14.0834 8.1137 22.2019 4.8544 0.4681 10.3077
504 13 12.1025 10.0442 22.1986 5.6188 0.4290 10.0629
505 13 12.1270 12.2042 -0.0187 6.1209 0.4261 9.7418
506 13 14.1027 14.0914 -0.1123 6.4605 0.4817 9.3071
507 13 14.0672 12.1015 2.0252 5.1662 0.4157 10.4042
508 13 12.0974 14.0450 2.0080 4.7369 0.4077 10.3516
509 13 12.1302 12.0559 4.0187 6.0687 0.4816 10.4734
510 13 14.0883 14.1414 3.9874 6.1828 0.4481 9.4414
511 13 14.0765 12.0448 6.1036 4.9782 0.4372 9.6749
512 13 12.0437 14.0952 6.0215 6.4345 0.4286 9.4734
513 13 12.1315 12.1321 8.0563 5.4232 0.4269 9.0533
514 13 14.0653 14.0332 8.0784 5.4137 0.4612 10.1446
515 13 14.1424 12.0974 10.1070 4.8101 0.4608 9.1276
516 13 12.1166 14.0582 10.0447 5.3297 0.4665 10.4577
517 13 12.0864 12.0782 12.0653 6.3736 0.4356 10.8820
518 13 14.1077 14.1451 12.1346 7.0670 0.4663 10.9784
519 13 14.0930 12.1188 14.0993 6.3243 0.4527 10.9604
520 13 12.0754 14.1503 14.1222 5.5819 0.4075 9.1461
521 13 12.1444 12.1544 16.1440 5.7275 0.4073 10.6219
522 13 14.1317 14.0320 16.0952 6.0323 0.4076 9.8316
523 13 14.1427 12.0970 18.1097 6.4749 0.4513 8.6476
524 13 12.1497 14.0519 18.1200 6.3344 0.4254 9.4951
525 13 12.0377 12.1341 20.1417 5.7731 0.4195 9.5779
526 13 14.2016 14.1387 20.2682 5.7049 0.4636 10.2654
527 13 14.0961 12.1132 22.1538 5.4311 0.4430 9.3674
528 13 11.9950 14.0164 22.1400 6.0142 0.4774 9.4866
529 13 12.0884 16.1520 -0.0638 4.8354 0.4454 10.9367
530 13 14.1102 18.1433 -0.0021 6.5307 0.4138 10.1709
531 13 14.1790 16.1019 2.0694 4.9017 0.4775 8.7846
532 13 12.0700 18.0770 2.0604 5.7572 0.4848 10.2880
533 13 12.0808 16.1963 4.0466 5.2157 0.4359 10.8959
534 13 14.0775 18.1870 4.0484 6.2499 0.4298 9.4295
535 13 14.1059 16.0684 6.0284 6.7638 0.4649 9.0966
536 13 12.0534 18.1644 5.9275 5.6020 0.4069 9.5631
537 13 12.0820 16.0954 8.0104 4.8268 0.4630 9.9404
538 13 14.0668 18.1239 8.0717 5.5034 0.4425 11.1508
539 13 14.0849 16.1447 9.9963 6.3409 0.4261 9.8028
540 13 12.0448 18.0714 10.1340 6.2789 0.4295 11.1294
541 13 12.1290 16.2139 12.0516 6.5472 0.4146 10.4534
542 13 14.0373 18.1431 12.1647 5.1306 0.4461 11.1485
543 13 14.1171 16.0599 14.1600 5.1972 0.4735 10.4596
544 13 12.0842 18.1448 14.0553 7.0190 0.4398 10.0773
545 13 12.0881 16.1479 16.1966 6.3898 0.4069 10.2556
546 13 14.0494 18.1337 16.1644 6.8408 0.4464 9.5717
547 13 14.1432 16.1434 18.1857 5.3925 0.4884 10.3807
548 13 12.0870 18.1293 18.1295 5.0575 0.4590 10.0866
549 13 12.0482 16.1677 20.2538 5.6210 0.4515 10.9699
550 13 14.1756 18.1395 20.1332 5.1447 0.4271 8.8983
551 13 14.1110 16.1824 22.1695 5.2229 0.4374 8.5648
552 13 12.0912 18.0878 22.2219 6.5605 0.4408 11.0782
553 13 12.0934 20.1392 0.0118 5.0140 0.4367 8.7894
554 13 14.1370 22.1718 0.0403 6.5760 0.4070 9.8670
555 13 14.1293 20.1639 2.0420 6.7433 0.4793 10.6761
556 13 12.0626 22.1994 1.9810 5.5098 0.4288 11.3278
557 13 12.0284 20.1702 4.0304 6.9636 0.4696 11.1565
558 13 14.1681 22.2444 4.0278 5.4767 0.4065 10.4627
559 13 14.1053 20.1036 6.0595 6.0433 0.4733 9.0397
560 13 12.0983 22.1528 6.0087 5.2171 0.4584 8.4748
561 13 12.1653 20.1104 8.1471 6.5941 0.4109 10.3372
562 13 14.1018 22.1434 7.9924 5.1039 0.4704 8.7286
563 13 14.0238 20.1086 10.0691 5.9446 0.4098 9.9691
564 13 12.0965 22.1867 10.0915 5.3333 0.4761 9.7438
565 13 12.1071 20.1593 12.0586 6.2769 0.4182 11.2732
566 13 14.1232 22.1335 12.0802 4.8350 0.4081 9.6776
567 13 14.1087 20.1727 14.0163 6.6256 0.4485 10.6679
568 13 12.1337 22.1948 14.1349 6.1821 0.4497 9.7825
569 13 12.1380 20.0894 16.1146 6.8367 0.4288 9.0454
570 13 14.1764 22.1413 16.1867 5.5424 0.4607 9.1165
571 13 14.1885 20.0910 18.1697 5.0433 0.4583 9.4693
572 13 12.1258 22.2159 18.2122 7.0286 0.4029 8.9784
573 13 12.1294 20.1830 20.1256 5.7375 0.4017 9.8631
574 13 14.1295 22.1524 20.2195 6.7486 0.4457 11.0518
575 13 14.0831 20.2259 22.1193 5.0729 0.4658 10.2767
576 13 12.0526 22.2171 22.1803 5.2435 0.4046 10.5189
577 13 16.1545 0.0654 0.0099 5.4413 0.4544 9.5277
578 13 18.1827 2.0804 0.0083 6.3753 0.4837 9.3365
579 13 18.1295 -0.0660 2.0393 6.1130 0.4317 8.5677
580 13 16.0846 2.0089 2.0780 6.5457 0.4874 9.2744
581 13 16.1184 -0.0708 4.0390 5.8500 0.4088 9.4363
582 13 18.1076 1.9918 4.0554 5.8039 0.4877 11.2094
583 13 18.1009 0.0481 6.0218 5.4973 0.4796 11.2737
584 13 16.0987 2.0916 6.0405 5.6086 0.4408 10.2998
585 13 16.1744 -0.0032 7.9874 5.6538 0.4061 10.9609