ITEM: TIMESTEP
0
ITEM: NUMBER OF ATOMS
864
ITEM: BOX BOUNDS pp pp pp
0.0 21.1453
0.0 21.1453
0.0 21.1453
ITEM: ATOMS id type x y z error strain stiffness
1 28 -0.0126 0.0355 0.0243 3.0875 0.1307 5.8505
2 28 1.7615 1.7549 -0.0215 3.1935 0.1136 6.4054
3 28 1.8120 0.0076 1.7486 2.5244 0.1241 5.4944
4 28 -0.0151 1.7446 1.7583 2.3495 0.1288 4.9707
5 28 0.0248 0.0086 3.5437 2.4867 0.1270 5.4798
6 28 1.7317 1.7525 3.4872 3.0426 0.1211 5.8625
7 28 1.7144 -0.0392 5.2995 2.4570 0.1218 6.1472
8 28 0.0019 1.7938 5.2852 2.5967 0.1147 5.4264
9 28 -0.0091 0.0132 7.0693 2.4622 0.1172 5.5701
10 28 1.7712 1.7326 7.0498 2.3798 0.1094 5.0578
11 28 1.7597 -0.0151 8.8304 3.0811 0.1103 5.7098
12 28 0.0283 1.7507 8.8124 2.6765 0.1204 5.1273
13 28 -0.0317 -0.0133 10.5784 2.9501 0.1254 5.3672
14 28 1.7784 1.7263 10.5499 3.1243 0.1253 5.8416
15 28 1.7676 -0.0031 12.2932 2.4838 0.1248 5.7921
16 28 0.0248 1.7536 12.3365 2.8816 0.1129 5.3715
17 28 -0.0298 -0.0181 14.0981 2.8916 0.1189 5.0273
18 28 1.7732 1.7493 14.1157 2.6288 0.1116 6.2717
19 28 1.7650 0.0105 15.8646 2.3223 0.1197 6.3395
20 28 0.0013 1.7577 15.8783 2.3993 0.1273 5.5089
21 28 -0.0088 -0.0262 17.6223 3.2151 0.1106 5.4235
22 28 1.7411 1.7732 17.6130 3.2012 0.1302 5.8695
23 28 1.7501 0.0095 19.3887 2.7874 0.1173 5.9330
24 28 -0.0153 1.7805 19.3783 3.2569 0.1219 6.1056
25 28 -0.0290 3.5154 -0.0397 2.2606 0.1305 6.4165
26 28 1.7809 5.2850 0.0453 3.2108 0.1149 5.2256
27 28 1.7593 3.5333 1.7510 2.6302 0.1098 6.3382
28 28 0.0009 5.2766 1.7307 2.9101 0.1099 5.2714
29 28 -0.0187 3.5329 3.4751 3.2888 0.1105 5.2472
30 28 1.7602 5.2964 3.5089 2.8778 0.1210 5.4631
31 28 1.7726 3.5323 5.2879 2.8326 0.1190 6.5379
32 28 -0.0064 5.2696 5.2774 3.2512 0.1286 5.1542
33 28 0.0039 3.5146 7.0348 2.6641 0.1313 6.1396
34 28 1.7483 5.2970 7.0540 2.3500 0.1235 5.3478
35 28 1.7548 3.5429 8.7962 2.9708 0.1158 5.8562
36 28 -0.0022 5.3112 8.7966 2.7001 0.1157 5.3185
37 28 0.0015 3.5241 10.5476 3.1566 0.1285 5.2344
38 28 1.7626 5.2634 10.5902 3.0793 0.1146 6.5475
39 28 1.7600 3.5141 12.3634 2.4431 0.1266 4.9147
40 28 -0.0180 5.2735 12.3334 3.0029 0.1154 6.2600
41 28 -0.0116 3.5136 14.1102 2.5727 0.1243 5.9204
42 28 1.7651 5.2924 14.0575 2.5331 0.1191 5.2684
43 28 1.7618 3.5277 15.8815 3.2014 0.1250 5.7872
44 28 0.0047 5.2919 15.8632 2.9265 0.1088 5.0076
45 28 0.0152 3.5182 17.5979 2.7907 0.1244 6.2508
46 28 1.7621 5.2797 17.6467 2.2844 0.1205 4.9558
47 28 1.7842 3.5374 19.3613 3.1026 0.1111 5.5465
48 28 0.0008 5.2761 19.3824 2.8890 0.1209 6.0551
49 28 0.0097 7.0506 -0.0189 2.6603 0.1279 5.2085
50 28 1.7613 8.7663 0.0322 2.3822 0.1301 6.1135
51 28 1.7683 7.0601 1.7724 2.7966 0.1137 4.9814
52 28 0.0045 8.8333 1.7747 2.5993 0.1117 6.2783
53 28 -0.0200 7.0761 3.5007 2.8514 0.1182 4.9142
54 28 1.7909 8.8214 3.5168 2.6331 0.1265 6.5967
55 28 1.7825 7.0083 5.2833 2.4982 0.1089 5.9932
56 28 -0.0050 8.8000 5.2850 2.6677 0.1294 5.8309
57 28 0.0137 7.0338 7.0428 3.1113 0.1130 4.9544
58 28 1.7346 8.8013 7.0568 2.9031 0.1107 5.0925
59 28 1.7616 7.0220 8.7785 2.6020 0.1305 4.9159
60 28 0.0040 8.7961 8.8188 2.3941 0.1140 6.2508
61 28 0.0046 7.0474 10.5617 2.7793 0.1202 5.2941
62 28 1.8032 8.7822 10.5614 3.0645 0.1211 6.0443
63 28 1.7704 7.0647 12.3236 2.9913 0.1188 5.4368
64 28 0.0196 8.8454 12.3492 2.9498 0.1083 6.2093
65 28 0.0147 7.0883 14.1222 2.8098 0.1195 5.1364
66 28 1.7715 8.8054 14.0647 2.8660 0.1272 6.2780
67 28 1.7448 7.0660 15.8520 3.2304 0.1319 5.9581
68 28 0.0245 8.8580 15.8779 2.7865 0.1297 5.1142
69 28 -0.0268 7.0399 17.6229 3.1760 0.1136 5.6068
70 28 1.7466 8.8400 17.6325 3.0358 0.1168 5.9169
71 28 1.7917 7.0426 19.3834 2.9784 0.1250 5.2928
72 28 0.0121 8.8176 19.3869 2.6386 0.1161 5.7960
73 28 0.0013 10.5714 -0.0354 2.3391 0.1184 5.7376
74 28 1.7546 12.3664 -0.0046 2.8928 0.1202 6.5664
75 28 1.7651 10.5817 1.7606 2.3537 0.1119 6.3997
76 28 -0.0098 12.3266 1.7500 2.9737 0.1153 6.4210
77 28 0.0013 10.5726 3.5279 2.8380 0.1194 5.4074
78 28 1.7771 12.3127 3.5468 3.2824 0.1235 5.9644
79 28 1.7810 10.6010 5.2931 2.3397 0.1239 5.5096
80 28 0.0069 12.3241 5.2964 2.3063 0.1140 4.9986
81 28 0.0074 10.5457 7.0570 2.6694 0.1201 4.9816
82 28 1.7806 12.3383 7.0480 3.2053 0.1235 5.8140
83 28 1.7449 10.5649 8.8139 2.4004 0.1188 5.6540
84 28 -0.0027 12.3350 8.8132 2.6758 0.1201 5.5849
85 28 0.0039 10.5696 10.5842 2.9355 0.1268 5.8213
86 28 1.7197 12.3115 10.5722 2.3614 0.1113 5.0862
87 28 1.7602 10.5543 12.3107 3.1905 0.1263 5.9177
88 28 0.0274 12.3539 12.3111 3.1075 0.1218 6.4288
89 28 -0.0297 10.5822 14.0837 2.2807 0.1308 6.2735
90 28 1.7353 12.2974 14.0666 2.8975 0.1162 6.3366
91 28 1.7410 10.5810 15.8380 2.4316 0.1102 5.7633
92 28 -0.0270 12.3356 15.8557 2.3906 0.1193 5.0071
93 28 0.0205 10.5954 17.6348 2.3180 0.1310 5.5744
94 28 1.7346 12.3681 17.5788 2.3413 0.1126 5.0929
95 28 1.7825 10.5821 19.3645 2.2742 0.1170 5.2214
96 28 -0.0296 12.3292 19.3872 2.3876 0.1214 5.2547
97 28 0.0119 14.0987 0.0159 3.2616 0.1102 6.0310
98 28 1.7900 15.8853 -0.0297 2.4153 0.1270 6.6150
99 28 1.7731 14.1040 1.7343 2.6369 0.1166 5.7034
100 28 0.0148 15.8775 1.7604 2.4764 0.1248 5.4527
101 28 -0.0029 14.0978 3.5366 2.6092 0.1191 5.9076
102 28 1.7716 15.8937 3.5337 2.8466 0.1173 5.4386
103 28 1.7461 14.1438 5.3093 2.6489 0.1260 5.6706
104 28 -0.0321 15.8832 5.2769 2.4956 0.1197 5.3750
105 28 -0.0166 14.0964 7.0339 2.7616 0.1307 5.4978
106 28 1.7577 15.8534 7.0556 2.5717 0.1226 6.5301
107 28 1.7431 14.0621 8.8059 2.4619 0.1127 5.4496
108 28 0.0066 15.8369 8.8428 2.8056 0.1280 5.9197
109 28 0.0055 14.1020 10.5690 2.8972 0.1200 6.1602
110 28 1.7423 15.8444 10.5733 2.4095 0.1093 5.2413
111 28 1.7613 14.0803 12.3469 2.7129 0.1082 6.4670
112 28 -0.0178 15.8389 12.3229 2.5105 0.1311 6.3978
113 28 -0.0143 14.0926 14.1059 2.5576 0.1246 5.9267
114 28 1.7590 15.8792 14.0733 2.4035 0.1095 6.2126
115 28 1.7600 14.1220 15.8656 2.8712 0.1292 5.6695
116 28 -0.0052 15.8614 15.8663 3.1389 0.1284 6.1555
117 28 0.0173 14.0838 17.6113 2.6201 0.1191 6.0855
118 28 1.7818 15.8517 17.6288 2.6172 0.1225 5.4064
119 28 1.7651 14.0705 19.3679 2.6338 0.1083 5.3128
120 28 -0.0207 15.8263 19.3517 3.0054 0.1280 5.5463
121 28 -0.0199 17.6238 -0.0140 2.4369 0.1297 6.0335
122 28 1.7819 19.4077 0.0147 2.5287 0.1259 5.1783
123 28 1.7853 17.6532 1.7827 2.4643 0.1289 5.0300
124 28 0.0122 19.3800 1.7622 2.5387 0.1201 6.1940
125 28 -0.0198 17.6004 3.5478 3.0944 0.1208 5.4748
126 28 1.7618 19.3740 3.5082 2.6253 0.1282 5.8220
127 28 1.7328 17.6560 5.3228 3.0184 0.1183 5.2107
128 28 0.0194 19.4005 5.3060 2.5262 0.1193 5.0031
129 28 -0.0172 17.6179 7.0563 3.1171 0.1172 4.9668
130 28 1.7639 19.3916 7.0707 2.8132 0.1138 5.9293
131 28 1.7557 17.6084 8.7879 2.4951 0.1202 6.4657
132 28 0.0066 19.3924 8.7973 3.0225 0.1130 5.9285
133 28 -0.0138 17.6192 10.5637 3.1640 0.1285 6.3937
134 28 1.7766 19.3886 10.5854 2.5380 0.1120 6.1875
135 28 1.7506 17.6110 12.3617 2.2482 0.1139 6.1218
136 28 -0.0097 19.3645 12.3461 2.2636 0.1132 6.5522
137 28 0.0091 17.6337 14.0802 2.5307 0.1160 4.9695
138 28 1.7998 19.3842 14.0880 3.0731 0.1317 5.7883
139 28 1.7667 17.6231 15.8729 2.2241 0.1304 6.1427
140 28 -0.0330 19.3849 15.9051 2.2980 0.1096 6.3027
141 28 -0.0053 17.6035 17.6277 2.9865 0.1114 5.6405
142 28 1.7854 19.3936 17.6109 3.1784 0.1247 5.0188
143 28 1.8004 17.5994 19.3828 2.8096 0.1187 5.2075
144 28 0.0152 19.3774 19.3962 2.8202 0.1252 5.2426
145 28 3.5160 -0.0047 -0.0071 3.2227 0.1153 6.1837
146 28 5.2807 1.7377 0.0116 2.9048 0.1223 6.4639
147 28 5.3247 0.0038 1.7214 2.2732 0.1125 5.0673
148 28 3.5427 1.7849 1.7957 2.3774 0.1224 6.1372
149 28 3.5165 0.0256 3.4935 2.3335 0.1250 4.9437
150 28 5.2625 1.7816 3.5274 2.7979 0.1113 5.6511
151 28 5.3112 0.0137 5.2800 2.4579 0.1127 5.1387
152 28 3.5463 1.7483 5.3161 3.2739 0.1105 6.1191
153 28 3.4987 -0.0133 7.0051 2.9232 0.1140 6.1592
154 28 5.3063 1.7566 7.0410 3.1968 0.1119 5.5521
155 28 5.2754 -0.0272 8.8033 2.7066 0.1241 4.9653
156 28 3.5385 1.7508 8.8350 2.3283 0.1101 6.2285
157 28 3.5298 -0.0476 10.5895 2.3194 0.1083 5.7088
158 28 5.2742 1.7583 10.5855 2.7055 0.1122 5.0281
159 28 5.3279 0.0319 12.3351 3.2184 0.1269 6.1426
160 28 3.5238 1.7749 12.3193 3.2013 0.1264 4.9885
161 28 3.5483 0.0154 14.1112 2.8290 0.1118 5.3232
162 28 5.2932 1.7599 14.1010 2.5032 0.1285 5.6897
163 28 5.3174 0.0005 15.8322 2.3249 0.1188 4.9141
164 28 3.5176 1.7452 15.8852 2.7347 0.1303 5.0272
165 28 3.5603 -0.0017 17.5922 2.6066 0.1180 6.4412
166 28 5.2635 1.7657 17.6242 3.2982 0.1125 6.5352
167 28 5.3167 0.0174 19.3990 2.4538 0.1289 5.5210
168 28 3.5309 1.7435 19.3730 2.5263 0.1112 4.9506
169 28 3.5544 3.5239 0.0113 3.0013 0.1238 5.7648
170 28 5.3029 5.2988 -0.0267 3.2874 0.1314 5.9664
171 28 5.2962 3.5143 1.7605 2.2928 0.1138 5.7402
172 28 3.5353 5.2613 1.7731 2.9419 0.1299 5.3209
173 28 3.5270 3.4900 3.5140 2.7616 0.1129 6.5649
174 28 5.3121 5.2861 3.5729 2.4344 0.1168 5.2956
175 28 5.2743 3.5158 5.3421 2.6207 0.1140 5.9539
176 28 3.5309 5.3035 5.3163 2.4722 0.1303 6.4758
177 28 3.5317 3.5371 7.0351 2.9112 0.1242 5.1554
178 28 5.2659 5.2688 7.0421 2.9687 0.1318 5.5122
179 28 5.2539 3.5328 8.7872 2.6367 0.1312 5.3710
180 28 3.5121 5.2844 8.8184 2.5565 0.1099 6.3079
181 28 3.5240 3.5355 10.5973 2.9242 0.1181 6.0412
182 28 5.2440 5.3263 10.5801 2.2837 0.1117 5.6203
183 28 5.2906 3.5501 12.3543 2.3610 0.1314 5.7145
184 28 3.5247 5.2737 12.3377 2.5355 0.1274 6.1693
185 28 3.5161 3.5693 14.1014 2.6715 0.1122 6.0896
186 28 5.2690 5.2867 14.1257 2.7779 0.1115 5.3384
187 28 5.2730 3.5400 15.8480 2.9654 0.1262 5.7429
188 28 3.5005 5.2877 15.8565 3.0429 0.1227 5.2355
189 28 3.5115 3.5370 17.6427 2.2305 0.1107 4.9334
190 28 5.2812 5.2846 17.6091 2.9011 0.1165 6.2892
191 28 5.3039 3.5156 19.3655 2.3688 0.1289 5.0664
192 28 3.5147 5.2932 19.3785 2.8863 0.1213 5.8261
193 28 3.4943 7.0361 0.0135 3.1238 0.1182 5.1974
194 28 5.2954 8.7958 0.0057 2.9762 0.1163 5.9989
195 28 5.2862 7.0038 1.7434 2.4264 0.1141 6.5481
196 28 3.4785 8.8176 1.7289 2.6743 0.1257 6.1454
197 28 3.5380 7.0307 3.5478 2.7196 0.1101 5.3308
198 28 5.2593 8.8284 3.5300 3.2230 0.1216 6.0592
199 28 5.2823 7.0302 5.2823 2.9437 0.1289 5.4569
200 28 3.4835 8.7820 5.2957 2.2657 0.1235 5.1818
201 28 3.5262 7.0199 7.0358 3.2613 0.1222 5.7621
202 28 5.3005 8.8232 7.0291 2.4453 0.1264 6.1414
203 28 5.2961 7.0517 8.7738 2.9740 0.1113 5.0202
204 28 3.5177 8.8284 8.8054 2.9590 0.1110 6.6129
205 28 3.5566 7.0175 10.5887 2.9333 0.1131 5.2617
206 28 5.2686 8.8437 10.5726 2.9654 0.1107 6.3436
207 28 5.2650 7.0130 12.3373 2.9316 0.1284 5.1282
208 28 3.5296 8.8122 12.3548 3.1889 0.1271 5.3217
209 28 3.5074 7.0458 14.1010 2.9548 0.1117 5.8587
210 28 5.2718 8.8222 14.1106 3.1040 0.1139 6.2400
211 28 5.2676 7.0920 15.8801 2.3099 0.1146 5.2541
212 28 3.5367 8.8220 15.8838 3.1396 0.1300 5.2724
213 28 3.5491 7.0343 17.6394 2.8422 0.1118 6.5779
214 28 5.3014 8.8318 17.6195 3.0153 0.1096 5.0223
215 28 5.2879 7.0663 19.3817 3.2946 0.1256 6.3285
216 28 3.5203 8.8085 19.3762 2.3806 0.1113 6.4294
217 28 3.5133 10.5734 0.0089 2.2766 0.1204 6.5613
218 28 5.2707 12.3612 0.0089 2.5705 0.1097 6.0465
219 28 5.2749 10.6112 1.7355 2.4290 0.1306 6.0922
220 28 3.5361 12.3481 1.7651 2.2823 0.1270 5.8978
221 28 3.5255 10.5649 3.5204 2.7754 0.1124 5.4083
222 28 5.3129 12.3251 3.4997 2.4534 0.1298 4.9088
223 28 5.2445 10.5460 5.3099 2.9557 0.1290 6.1326
224 28 3.5243 12.3564 5.2851 3.1888 0.1246 5.4404
225 28 3.5121 10.5582 7.0872 3.1103 0.1130 5.4354
226 28 5.2910 12.3256 6.9977 2.6008 0.1105 6.2594
227 28 5.2620 10.5783 8.8275 3.1016 0.1143 6.1374
228 28 3.5450 12.3103 8.7995 2.6220 0.1104 6.3265
229 28 3.5367 10.5520 10.5838 2.9526 0.1118 6.6137
230 28 5.2883 12.3512 10.5784 2.8711 0.1316 5.2235
231 28 5.2400 10.5808 12.3464 3.0443 0.1271 6.0458
232 28 3.5008 12.3334 12.3505 2.9350 0.1118 6.2425
233 28 3.5428 10.5825 14.0939 2.3295 0.1184 6.5514
234 28 5.2769 12.3091 14.0822 2.5583 0.1273 5.9448
235 28 5.3025 10.5726 15.8663 2.5447 0.1272 4.9297
236 28 3.5010 12.3001 15.8553 2.7473 0.1192 5.5900
237 28 3.5504 10.5789 17.6450 2.5675 0.1163 6.4933
238 28 5.2620 12.3502 17.6376 3.0062 0.1220 6.3977
239 28 5.2756 10.5455 19.3965 2.2386 0.1097 5.2403
240 28 3.5021 12.3308 19.3817 2.2585 0.1216 6.4056
241 28 3.5328 14.1201 -0.0043 2.4160 0.1317 6.5650
242 28 5.2946 15.8955 -0.0068 2.8552 0.1165 5.7737
243 28 5.2660 14.1098 1.7362 2.7710 0.1208 5.6986
244 28 3.5349 15.8684 1.7581 3.0972 0.1116 6.3120
245 28 3.5082 14.0816 3.5521 2.8390 0.1235 6.3378
246 28 5.2849 15.8670 3.5454 3.1417 0.1189 5.7204
247 28 5.2827 14.0747 5.2843 3.2831 0.1255 5.5473
248 28 3.5265 15.8794 5.2663 3.2072 0.1115 6.3839
249 28 3.5129 14.1307 7.0368 3.1865 0.1095 4.9182
250 28 5.2621 15.8903 7.0197 2.4039 0.1230 6.4123
251 28 5.3003 14.1290 8.8399 3.0165 0.1245 5.7545
252 28 3.4964 15.8682 8.8149 2.2250 0.1287 5.7363
253 28 3.5717 14.1138 10.5882 2.3682 0.1232 5.7281
254 28 5.2901 15.8554 10.5688 2.5542 0.1147 5.1922
255 28 5.2925 14.0738 12.3739 2.7622 0.1138 6.2348
256 28 3.5555 15.8755 12.3300 2.2902 0.1113 5.2609
257 28 3.5268 14.0912 14.1447 3.0154 0.1095 4.9853
258 28 5.2731 15.8442 14.1045 2.5896 0.1098 5.6756
259 28 5.3044 14.0924 15.8738 2.4610 0.1095 5.4838
260 28 3.5225 15.8849 15.8150 2.3960 0.1187 5.9559
261 28 3.5424 14.0959 17.6286 2.4339 0.1180 5.6279
262 28 5.2987 15.8810 17.6314 2.5661 0.1243 5.2787
263 28 5.2935 14.0841 19.3513 2.3704 0.1272 6.4946
264 28 3.5213 15.8657 19.4093 3.2554 0.1283 5.1763
265 28 3.5022 17.6180 -0.0066 2.6618 0.1149 5.3353
266 28 5.3134 19.4176 -0.0046 2.7172 0.1164 4.9493
267 28 5.2516 17.6351 1.7456 2.7225 0.1307 5.7792
268 28 3.5423 19.3914 1.8062 2.5546 0.1219 5.4378
269 28 3.5284 17.6317 3.5279 2.8891 0.1154 5.0975
270 28 5.2795 19.3866 3.5099 2.5778 0.1108 5.2263
271 28 5.3039 17.6181 5.2654 3.0944 0.1281 5.4841
272 28 3.5250 19.3925 5.2983 2.7666 0.1317 5.6781
273 28 3.4994 17.5798 7.0229 2.4422 0.1257 6.0707
274 28 5.3012 19.3479 7.0878 2.7062 0.1287 6.1542
275 28 5.2966 17.6317 8.8025 3.1284 0.1124 5.5828
276 28 3.5102 19.3684 8.7928 3.2733 0.1313 5.6227
277 28 3.5060 17.6269 10.5603 3.0957 0.1217 5.4946
278 28 5.2865 19.3538 10.5665 2.7340 0.1273 5.1142
279 28 5.2626 17.6010 12.3271 2.3830 0.1112 5.7229
280 28 3.5386 19.3684 12.3438 2.2179 0.1181 6.0005
281 28 3.5614 17.6577 14.0902 3.3065 0.1303 5.2910
282 28 5.2631 19.3796 14.1005 2.4443 0.1191 6.0443
283 28 5.2361 17.6057 15.8769 2.9655 0.1159 6.3875
284 28 3.5281 19.4035 15.8628 2.6990 0.1155 5.4092
285 28 3.5351 17.6114 17.6493 3.1977 0.1294 6.4265
286 28 5.2788 19.3780 17.6644 2.3921 0.1119 5.5964
287 28 5.2791 17.6138 19.3959 2.3842 0.1186 5.2602
288 28 3.5444 19.4046 19.3955 2.6897 0.1248 5.0942
289 28 7.0373 -0.0134 -0.0019 2.5310 0.1174 6.1166
290 28 8.8428 1.7787 -0.0284 2.9109 0.1192 6.3045
291 28 8.7750 0.0232 1.7851 2.2835 0.1227 5.9372
292 28 7.0452 1.7451 1.7767 2.4888 0.1111 5.5118
293 28 7.0499 0.0145 3.5149 2.5719 0.1246 6.3861
294 28 8.8344 1.7341 3.5344 3.1438 0.1287 5.0166
295 28 8.7834 -0.0316 5.2506 2.5597 0.1134 5.5783
296 28 7.0260 1.7621 5.3085 2.9479 0.1141 5.1305
297 28 6.9955 -0.0188 7.0646 2.3656 0.1225 5.7441
298 28 8.8052 1.7485 7.0336 2.7909 0.1180 5.8720
299 28 8.7993 0.0141 8.7895 3.1995 0.1265 5.0959
300 28 7.0319 1.7646 8.7951 3.1419 0.1093 5.2229
301 28 7.0616 0.0133 10.5732 3.1730 0.1166 5.3889
302 28 8.8186 1.7725 10.5742 2.6237 0.1202 5.5900
303 28 8.8039 -0.0129 12.3399 3.2878 0.1318 5.1080
304 28 7.0575 1.7843 12.3250 2.2886 0.1080 5.5841
305 28 7.0501 -0.0397 14.0855 2.8101 0.1176 5.6637
306 28 8.8274 1.7629 14.0616 2.2200 0.1107 4.9096
307 28 8.8198 -0.0068 15.8805 2.2803 0.1275 5.1731
308 28 7.0464 1.7581 15.8631 3.1383 0.1105 5.5045
309 28 7.0529 0.0065 17.6294 3.2516 0.1209 5.4892
310 28 8.8342 1.7832 17.6197 2.6089 0.1161 6.3864
311 28 8.8214 0.0156 19.3608 3.0211 0.1124 6.6146
312 28 7.0655 1.7870 19.3872 3.1934 0.1094 5.4198
313 28 7.0415 3.4999 -0.0150 2.8807 0.1298 5.0484
314 28 8.8092 5.2810 0.0240 2.3617 0.1137 6.3529
315 28 8.7963 3.5102 1.7732 2.7655 0.1120 6.5982
316 28 7.0374 5.2671 1.7848 2.8799 0.1111 6.5386
317 28 7.0548 3.5547 3.5304 2.6105 0.1203 5.7982
318 28 8.7750 5.2316 3.5312 3.1975 0.1255 5.6009
319 28 8.8094 3.5232 5.2782 2.7105 0.1260 5.6359
320 28 7.0504 5.2623 5.2858 2.2119 0.1244 6.4704
321 28 7.0793 3.5122 7.1061 2.3921 0.1221 5.1482
322 28 8.8122 5.2756 7.0300 2.6673 0.1283 6.3311
323 28 8.8132 3.5480 8.8110 2.4462 0.1295 6.0163
324 28 7.0261 5.3167 8.7577 2.4998 0.1157 6.1642
325 28 7.0411 3.5067 10.5449 2.9379 0.1255 5.2647
326 28 8.7555 5.2463 10.5796 2.7181 0.1228 5.4914
327 28 8.7932 3.5412 12.3295 2.3286 0.1218 6.4568
328 28 7.0645 5.2654 12.3464 2.4345 0.1141 5.2130
329 28 7.0652 3.5267 14.0859 2.2677 0.1122 6.4629
330 28 8.7769 5.2762 14.0816 2.5320 0.1286 6.3354
331 28 8.8323 3.4986 15.8424 2.3420 0.1276 5.0669
332 28 7.0572 5.3211 15.8566 2.2571 0.1123 5.9761
333 28 7.0567 3.5112 17.6073 2.8969 0.1291 6.0505
334 28 8.8177 5.3176 17.6211 2.4149 0.1138 6.4545
335 28 8.8206 3.5074 19.3854 2.9928 0.1147 5.8632
336 28 7.0139 5.2923 19.3752 3.0975 0.1191 5.7796
337 28 7.0611 7.0311 0.0245 3.2686 0.1084 6.0198
338 28 8.8414 8.8364 0.0066 2.8955 0.1126 5.9862
339 28 8.8216 7.0076 1.7442 2.6827 0.1211 5.1031
340 28 7.0497 8.8574 1.7479 2.7196 0.1118 5.1823
341 28 7.0488 7.0853 3.5354 2.2863 0.1181 5.5772
342 28 8.8055 8.7632 3.5442 2.6284 0.1080 5.9655
343 28 8.8169 7.0625 5.2812 3.2051 0.1138 6.4156
344 28 7.0457 8.8238 5.2815 2.5555 0.1085 5.0772
345 28 7.0391 7.1043 7.0709 2.2620 0.1199 6.4789
346 28 8.7963 8.8216 7.0309 2.2151 0.1283 5.6197
347 28 8.7870 7.0118 8.8064 2.5887 0.1146 6.0696
348 28 7.0789 8.8219 8.8130 3.1282 0.1251 5.9195
349 28 7.0196 7.0259 10.6049 3.2702 0.1119 5.6565
350 28 8.8666 8.8300 10.5572 2.7040 0.1188 5.5198
351 28 8.8064 7.0588 12.3603 2.4204 0.1175 5.3719
352 28 7.0183 8.8140 12.3159 2.5525 0.1082 5.8827
353 28 7.0610 7.0342 14.0873 3.0456 0.1314 5.3602
354 28 8.8222 8.8178 14.1195 3.2931 0.1276 5.5881
355 28 8.8043 7.0247 15.8619 2.8352 0.1277 5.8588
356 28 7.0350 8.8351 15.8783 2.4530 0.1198 6.3988
357 28 7.0541 7.0479 17.6298 3.0757 0.1292 6.0949
358 28 8.8027 8.7705 17.6524 2.2231 0.1115 5.5299
359 28 8.8438 7.0539 19.3819 2.7457 0.1268 6.0803
360 28 7.0089 8.8156 19.3860 2.9159 0.1209 6.0176
361 28 7.0282 10.5548 -0.0235 2.6062 0.1090 5.2945
362 28 8.8131 12.3488 -0.0153 2.2861 0.1235 6.1497
363 28 8.7864 10.5588 1.7723 2.9233 0.1248 5.4102
364 28 7.0642 12.3706 1.7891 2.3113 0.1281 5.8929
365 28 7.0790 10.5859 3.5085 2.9093 0.1235 4.9148
366 28 8.8039 12.3393 3.5537 3.1261 0.1243 4.9136
367 28 8.7954 10.5662 5.2848 3.1291 0.1238 5.5133
368 28 7.0351 12.3109 5.2959 2.4427 0.1308 5.8436
369 28 7.0741 10.5590 7.0498 2.9768 0.1140 5.8694
370 28 8.8096 12.3244 7.0445 3.0226 0.1137 6.2960
371 28 8.8450 10.5512 8.8423 2.5571 0.1265 5.4870
372 28 7.0502 12.3810 8.8059 2.5661 0.1162 5.9762
373 28 7.0310 10.5412 10.5831 2.2346 0.1305 5.5691
374 28 8.8098 12.3370 10.5833 2.6291 0.1225 6.3943
375 28 8.8045 10.5931 12.3254 2.9357 0.1166 5.2071
376 28 7.0410 12.3334 12.3268 2.7154 0.1141 6.5007
377 28 7.0391 10.5761 14.1229 2.2807 0.1260 6.3448
378 28 8.8138 12.3311 14.1374 2.4036 0.1101 6.5062
379 28 8.7794 10.5897 15.8496 2.7861 0.1107 6.0005
380 28 7.0261 12.3560 15.8865 2.3416 0.1234 5.3215
381 28 7.0676 10.5709 17.6349 2.7161 0.1212 6.4795
382 28 8.8081 12.3423 17.6250 2.6628 0.1193 5.3077
383 28 8.8215 10.5986 19.3814 3.2908 0.1197 6.4736
384 28 7.0524 12.3383 19.3960 3.2161 0.1264 5.6466
385 28 7.0801 14.0663 0.0049 2.3507 0.1107 5.9037
386 28 8.8205 15.9082 0.0299 3.1583 0.1229 6.2431
387 28 8.7893 14.1303 1.7593 2.8754 0.1269 6.4276
388 28 7.0194 15.8727 1.7471 3.1303 0.1171 5.8947
389 28 7.0487 14.0795 3.5507 2.5912 0.1181 5.3466
390 28 8.8241 15.8810 3.4971 2.3502 0.1249 6.4926
391 28 8.8002 14.0945 5.2971 2.9730 0.1149 5.1251
392 28 7.0482 15.8635 5.2948 3.0737 0.1251 6.3454
393 28 7.0631 14.1053 7.0492 2.3851 0.1093 5.0557
394 28 8.8220 15.7927 7.0968 2.6341 0.1130 6.0865
395 28 8.8103 14.1166 8.7989 3.0824 0.1195 6.4625
396 28 7.0443 15.8693 8.8226 2.5830 0.1137 4.9706
397 28 7.0531 14.0887 10.5471 2.6899 0.1146 5.4438
398 28 8.8089 15.8495 10.5749 2.9124 0.1249 5.6565
399 28 8.8129 14.0991 12.3732 3.2298 0.1299 6.1891
400 28 7.0328 15.8350 12.2826 2.5299 0.1116 5.1767
401 28 7.0417 14.0856 14.0867 3.1949 0.1259 6.0547
402 28 8.8240 15.8581 14.0929 3.1651 0.1288 5.9080
403 28 8.7761 14.1370 15.8602 2.8106 0.1081 5.5842
404 28 7.0217 15.8791 15.8204 3.2150 0.1187 5.3445
405 28 7.0169 14.1141 17.6239 2.7121 0.1153 4.9319
406 28 8.8289 15.8823 17.6095 2.3428 0.1266 5.2033
407 28 8.8125 14.0847 19.3984 2.7606 0.1146 5.5391
408 28 7.0757 15.8986 19.3522 2.6525 0.1209 6.2456
409 28 7.0554 17.6168 -0.0395 3.2528 0.1094 5.3934
410 28 8.8075 19.3923 -0.0096 2.4326 0.1086 6.5479
411 28 8.8038 17.6062 1.7637 2.7123 0.1207 6.1928
412 28 7.0374 19.3459 1.7731 3.1834 0.1099 5.1000
413 28 7.0302 17.6212 3.5197 2.2190 0.1217 6.5488
414 28 8.8298 19.3909 3.5354 2.3906 0.1296 6.0547
415 28 8.8054 17.6398 5.2955 2.8454 0.1090 5.4845
416 28 7.0657 19.3850 5.2932 3.1125 0.1251 5.9307
417 28 7.0225 17.6343 7.0306 2.2854 0.1125 5.7388
418 28 8.8203 19.3694 7.0260 2.4991 0.1181 5.1127
419 28 8.7895 17.6197 8.7926 2.6998 0.1100 5.0444
420 28 7.0330 19.3924 8.8160 2.7725 0.1134 5.8808
421 28 7.0528 17.6045 10.5954 3.2557 0.1104 6.0824
422 28 8.8146 19.3725 10.5849 2.8729 0.1093 5.5820
423 28 8.8318 17.6536 12.3318 2.3714 0.1144 5.4259
424 28 7.0458 19.3806 12.3644 2.9828 0.1280 5.7961
425 28 7.0852 17.6409 14.0971 3.1826 0.1270 5.6484
426 28 8.7779 19.4039 14.0904 2.3605 0.1119 5.1024
427 28 8.8058 17.6342 15.8133 2.8914 0.1273 5.7415
428 28 7.0421 19.3656 15.8806 2.5959 0.1136 5.0430
429 28 7.0308 17.6676 17.6193 2.5014 0.1182 6.2553
430 28 8.7886 19.3646 17.5997 2.9809 0.1222 5.1923
431 28 8.8143 17.6335 19.3501 2.5328 0.1269 5.3423
432 28 7.0587 19.3641 19.3929 2.2460 0.1197 5.9045
433 28 10.5613 -0.0180 0.0017 2.3634 0.1160 6.1680
434 28 12.3560 1.7432 -0.0136 3.0371 0.1092 6.5257
435 28 12.3226 0.0147 1.7680 3.0265 0.1229 6.4602
436 28 10.5935 1.7369 1.7412 2.3674 0.1105 5.8587
437 28 10.5627 0.0036 3.5720 2.8926 0.1284 5.5942
438 28 12.3467 1.7501 3.5078 2.4477 0.1139 5.5959
439 28 12.3065 0.0139 5.3016 2.9700 0.1299 6.2338
440 28 10.5580 1.7574 5.2904 2.4640 0.1210 6.3250
441 28 10.5698 0.0018 7.0302 2.3166 0.1268 5.6078
442 28 12.3275 1.7594 7.0005 2.8520 0.1206 6.4580
443 28 12.3669 -0.0308 8.8166 3.0888 0.1159 5.7652
444 28 10.5613 1.7976 8.8332 3.2436 0.1181 6.1837
445 28 10.5572 0.0045 10.5745 2.6906 0.1129 5.2114
446 28 12.3276 1.7696 10.5782 2.9935 0.1286 5.5806
447 28 12.3592 0.0113 12.3385 2.7878 0.1278 5.7609
448 28 10.5831 1.7631 12.3601 2.6053 0.1213 5.1617
449 28 10.5579 0.0153 14.1285 3.1027 0.1294 6.0615
450 28 12.3033 1.7318 14.0960 3.0363 0.1307 5.2405
451 28 12.3262 -0.0190 15.8855 2.3789 0.1138 5.8509
452 28 10.5952 1.7437 15.8614 2.8770 0.1177 4.9660
453 28 10.5537 -0.0112 17.6079 2.7191 0.1092 5.3835
454 28 12.3181 1.7579 17.6515 3.2664 0.1318 5.8004
455 28 12.3502 0.0117 19.3737 2.7291 0.1309 5.6380
456 28 10.5812 1.7186 19.3749 3.1678 0.1155 5.9392
457 28 10.5539 3.5271 0.0154 2.2831 0.1094 6.1956
458 28 12.3176 5.3015 0.0316 2.3354 0.1187 6.4008
459 28 12.3610 3.5482 1.7276 3.0856 0.1223 5.8923
460 28 10.5664 5.3014 1.7405 2.5276 0.1309 6.2954
461 28 10.5359 3.5216 3.5110 2.9458 0.1201 5.3582
462 28 12.2960 5.2294 3.5474 2.4061 0.1186 6.0239
463 28 12.3426 3.5443 5.3075 2.4150 0.1080 5.7627
464 28 10.5593 5.2873 5.3013 2.7122 0.1132 4.9841
465 28 10.5700 3.5479 7.0485 2.6874 0.1287 5.4472
466 28 12.3566 5.2878 7.0311 2.7448 0.1159 5.0499
467 28 12.3340 3.5092 8.8125 2.5558 0.1221 5.2508
468 28 10.5562 5.2730 8.8184 2.4953 0.1146 6.3494
469 28 10.5627 3.5299 10.6026 2.6008 0.1136 6.0702
470 28 12.3179 5.3160 10.5680 2.3024 0.1196 5.8955
471 28 12.3330 3.5321 12.3254 2.6159 0.1165 6.1431
472 28 10.5530 5.2751 12.3206 2.8662 0.1098 6.5876
473 28 10.5699 3.5429 14.0836 2.5769 0.1268 5.9780
474 28 12.3331 5.2590 14.0585 2.3916 0.1169 4.9205
475 28 12.3095 3.5247 15.8700 2.2697 0.1255 5.0501
476 28 10.5634 5.2678 15.8375 3.1401 0.1228 6.2557
477 28 10.5817 3.5137 17.6279 3.2549 0.1216 5.0968
478 28 12.3482 5.2787 17.6145 2.7791 0.1238 5.2550
479 28 12.3019 3.4704 19.4123 3.0023 0.1311 5.4938
480 28 10.5885 5.2343 19.3811 2.9002 0.1300 5.5012
481 28 10.5726 7.0295 -0.0336 2.9325 0.1159 6.4988
482 28 12.3459 8.8068 0.0013 2.4071 0.1180 6.4689
483 28 12.3193 7.0316 1.7624 3.1533 0.1100 5.9610
484 28 10.5920 8.8249 1.7440 3.3082 0.1200 6.1454
485 28 10.5920 7.0525 3.4997 3.1916 0.1203 6.4798
486 28 12.3297 8.8264 3.5288 2.2082 0.1203 6.2843
487 28 12.3349 7.0605 5.2774 2.6251 0.1094 5.3846
488 28 10.5932 8.8094 5.2992 2.6237 0.1298 6.3138
489 28 10.5524 7.0437 7.0498 2.4708 0.1120 5.2733
490 28 12.3191 8.8429 7.0515 2.2247 0.1259 6.1512
491 28 12.3492 7.0796 8.8004 2.3450 0.1247 6.4396
492 28 10.5847 8.8077 8.8325 2.6748 0.1234 5.9267
493 28 10.5700 7.0391 10.5786 2.2201 0.1287 6.3417
494 28 12.3170 8.8469 10.5523 2.2735 0.1264 4.9866
495 28 12.3524 7.0106 12.3313 3.1535 0.1223 6.2758
496 28 10.5603 8.8154 12.3217 2.4920 0.1283 6.1217
497 28 10.5723 7.0241 14.1033 2.5188 0.1217 5.8675
498 28 12.3467 8.8068 14.1028 2.4876 0.1144 5.1620
499 28 12.3497 7.0625 15.8275 2.2391 0.1314 5.6520
500 28 10.5694 8.8422 15.8509 2.9025 0.1239 5.0718
501 28 10.5422 7.0489 17.6035 2.9296 0.1160 6.5454
502 28 12.3219 8.8078 17.6400 2.7299 0.1106 5.4587
503 28 12.3049 7.0501 19.4170 2.9811 0.1271 6.4748
504 28 10.5897 8.7928 19.3526 2.9400 0.1225 5.0081
505 28 10.5585 10.5630 0.0395 2.8446 0.1100 5.6893
506 28 12.3256 12.3144 -0.0264 2.6259 0.1177 5.1930
507 28 12.3425 10.5928 1.7384 2.7187 0.1222 5.2510
508 28 10.5834 12.3360 1.7216 3.2332 0.1216 5.9545
509 28 10.5763 10.6073 3.5326 2.7945 0.1215 5.7375
510 28 12.3281 12.3399 3.4937 2.2911 0.1128 6.1502
511 28 12.3482 10.5552 5.2834 3.0994 0.1216 5.4379
512 28 10.5997 12.3246 5.2687 2.5204 0.1212 6.5365
513 28 10.6062 10.5786 7.0115 2.2250 0.1110 5.5373
514 28 12.3073 12.3613 7.0801 3.0828 0.1083 6.3789
515 28 12.3290 10.6064 8.8176 2.5788 0.1312 5.4442
516 28 10.5956 12.3486 8.7930 2.8025 0.1240 5.0180
517 28 10.5610 10.5511 10.5490 2.5282 0.1217 5.4391
518 28 12.3384 12.3006 10.5788 2.7422 0.1256 5.6996
519 28 12.3479 10.5329 12.3513 2.6008 0.1223 5.8075
520 28 10.5636 12.3229 12.3195 2.2523 0.1291 5.9252
521 28 10.5707 10.5858 14.0883 2.5811 0.1135 6.1839
522 28 12.3669 12.3227 14.0733 2.6316 0.1185 5.8559
523 28 12.3578 10.5485 15.8523 3.1587 0.1141 5.1788
524 28 10.5597 12.3118 15.8569 3.0286 0.1230 5.1491
525 28 10.5900 10.5797 17.6161 2.4208 0.1106 5.0746
526 28 12.3304 12.3004 17.6002 3.0678 0.1247 4.9017
527 28 12.3237 10.5695 19.3991 3.2520 0.1143 5.4152
528 28 10.5969 12.3500 19.3948 2.4925 0.1314 5.9656
529 28 10.5832 14.0424 0.0232 2.9908 0.1226 4.9604
530 28 12.3093 15.8623 -0.0006 2.3593 0.1147 6.3676
531 28 12.3568 14.1013 1.7659 2.3603 0.1297 5.9286
532 28 10.5912 15.8403 1.7811 2.6319 0.1096 6.0881
533 28 10.5501 14.1008 3.5454 2.9697 0.1283 5.6939
534 28 12.2959 15.8412 3.5155 2.3867 0.1218 6.0060
535 28 12.3067 14.0699 5.2658 2.5210 0.1181 5.5104
536 28 10.5646 15.9197 5.2655 3.0520 0.1093 5.7042
537 28 10.5738 14.0812 7.0363 2.2988 0.1266 5.0679
538 28 12.3414 15.9011 7.0674 2.6998 0.1306 6.2368
539 28 12.3596 14.0670 8.8362 2.5300 0.1120 4.9951
540 28 10.5779 15.8393 8.8000 2.5637 0.1290 5.3216
541 28 10.5864 14.0685 10.5586 2.5522 0.1153 6.4803
542 28 12.3418 15.8581 10.5484 2.3898 0.1091 5.7025
543 28 12.3165 14.0839 12.3372 3.2936 0.1213 5.8018
544 28 10.5809 15.8682 12.3347 2.3147 0.1270 5.5947
545 28 10.5902 14.0969 14.0774 3.2844 0.1170 5.9528
546 28 12.3329 15.8576 14.0882 2.5602 0.1101 5.8426
547 28 12.3373 14.1032 15.8918 2.3176 0.1108 5.3919
548 28 10.5940 15.8751 15.8316 2.5636 0.1236 6.4551
549 28 10.5854 14.1047 17.5921 2.7760 0.1200 6.4641
550 28 12.3429 15.8817 17.6230 2.8603 0.1209 6.4852
551 28 12.3413 14.0672 19.3693 3.2411 0.1304 6.1863
552 28 10.5497 15.8921 19.3708 2.6453 0.1285 5.0274
553 28 10.5404 17.6287 0.0008 2.2393 0.1227 5.7872
554 28 12.3060 19.4055 0.0204 2.5861 0.1305 5.4446
555 28 12.3250 17.6032 1.7201 2.2866 0.1305 5.1372
556 28 10.5453 19.3809 1.7427 2.5825 0.1258 5.7038
557 28 10.6023 17.6242 3.5303 3.1232 0.1122 5.3905
558 28 12.3209 19.4141 3.5350 2.9376 0.1080 4.9259
559 28 12.3625 17.5932 5.3194 2.5666 0.1227 5.4812
560 28 10.5469 19.4058 5.3023 3.1408 0.1153 6.5947
561 28 10.6177 17.6252 7.0620 2.6348 0.1231 5.8228
562 28 12.3285 19.4093 7.0307 2.2673 0.1217 5.7950
563 28 12.3342 17.6209 8.8363 2.4342 0.1293 4.9341
564 28 10.5922 19.4056 8.8059 3.1364 0.1119 5.8754
565 28 10.5407 17.6316 10.5528 3.2932 0.1263 6.3704
566 28 12.3255 19.3745 10.5682 2.9028 0.1130 5.3024
567 28 12.3284 17.6245 12.3456 3.0487 0.1316 5.0369
568 28 10.5830 19.4135 12.3536 3.1068 0.1168 6.1448
569 28 10.5547 17.6536 14.0898 2.3268 0.1256 5.5806
570 28 12.3492 19.3939 14.1055 2.6827 0.1278 6.1836
571 28 12.2872 17.6031 15.8830 3.2124 0.1153 5.0567
572 28 10.5614 19.3615 15.8455 3.0415 0.1306 5.2545
573 28 10.5451 17.6421 17.6428 2.2180 0.1305 5.2596
574 28 12.3322 19.3764 17.6501 2.8016 0.1218 6.4359
575 28 12.3517 17.6263 19.3726 2.7894 0.1092 6.5420
576 28 10.6188 19.3759 19.4059 2.4996 0.1198 5.9122
577 28 14.0676 0.0287 -0.0083 2.9292 0.1308 6.3079
578 28 15.8901 1.7882 0.0144 3.1243 0.1151 5.9117
579 28 15.8698 0.0060 1.7731 2.4267 0.1170 6.3303
580 28 14.1301 1.7435 1.7653 3.1121 0.1240 5.7780
581 28 14.0916 0.0165 3.5583 3.2396 0.1269 6.2045
582 28 15.8613 1.7701 3.5440 3.0393 0.1141 5.1604
583 28 15.8756 -0.0408 5.2905 2.4960 0.1123 5.9589
584 28 14.0711 1.7096 5.2653 2.7367 0.1307 5.3469
585 28 14.0694 -0.0326 7.0062 2.8284 0.1121 6.1171
586 28 15.8476 1.7722 7.0454 2.3441 0.1134 5.0699
587 28 15.8320 -0.0108 8.7611 2.9116 0.1193 5.1997
588 28 14.1048 1.7626 8.7967 2.6369 0.1108 5.6351
589 28 14.1101 -0.0178 10.5512 2.4773 0.1292 6.1111
590 28 15.8938 1.7844 10.5756 2.5769 0.1254 5.0529
591 28 15.8420 -0.0474 12.3466 3.2617 0.1174 6.0148
592 28 14.0692 1.7581 12.3200 3.1558 0.1294 6.2969
593 28 14.0852 0.0275 14.0767 2.7954 0.1105 5.2179
594 28 15.8612 1.7451 14.0941 2.2294 0.1305 6.2922