ITEM: TIMESTEP
0
ITEM: NUMBER OF ATOMS
864
ITEM: BOX BOUNDS pp pp pp
0.0 21.6900
0.0 21.6900
0.0 21.6900
ITEM: ATOMS id type x y z error strain stiffness
1 29 -0.0304 0.0223 0.1056 30.1201 0.0000 39.1114
2 29 1.7995 1.8886 -0.2570 30.8916 0.0000 40.9926
3 29 1.9867 0.0560 1.8624 30.5738 0.0000 32.7345
4 29 -0.1791 1.6418 1.9345 26.1289 0.0000 38.1321
5 29 -0.2474 0.2623 3.1446 28.4397 0.0000 35.6896
6 29 1.6185 1.6816 3.5901 25.7890 0.0000 40.8191
7 29 1.9209 -0.0070 5.6472 30.3648 0.0000 31.7966
8 29 -0.1543 1.8786 5.2772 26.7214 0.0000 32.7905
9 29 0.0135 0.1462 7.5872 24.9228 0.0000 32.3847
10 29 1.6886 2.1004 7.2232 26.9389 0.0000 35.5982
11 29 1.3038 0.0320 9.2095 26.1518 0.0000 41.7163
12 29 -0.4008 1.6378 9.3020 22.6159 0.0000 32.2955
13 29 -0.1056 0.0973 11.1720 30.3801 0.0000 34.8825
14 29 1.7885 1.8592 10.9158 25.4704 0.0000 42.5043
15 29 2.0459 0.3774 12.4161 23.2702 0.0000 39.5244
16 29 -0.1283 1.4273 12.5565 30.2038 0.0000 32.8266
17 29 0.0241 0.0531 14.5201 21.7365 0.0000 36.9237
18 29 1.8173 1.8809 14.7794 22.6999 0.0000 32.8538
19 29 1.7515 -0.1294 16.2122 26.5159 0.0000 41.8855
20 29 0.1995 1.7967 16.2274 31.1526 0.0000 32.1813
21 29 -0.0878 0.1891 18.0286 26.6587 0.0000 40.3892
22 29 1.8439 2.0743 18.2611 24.1053 0.0000 31.7269
23 29 1.7613 -0.0767 20.1648 24.7908 0.0000 39.7700
24 29 -0.2392 2.0168 19.9278 31.0474 0.0000 41.1700
25 29 -0.1984 3.6743 -0.0405 21.6913 0.0000 38.2932
26 29 2.1352 5.2165 -0.3264 31.2532 0.0000 36.2572
27 29 2.0276 3.7821 1.6661 27.7215 0.0000 35.4648
28 29 0.0059 5.5150 1.6872 27.9310 0.0000 42.0670
29 29 -0.0727 3.4029 3.6035 25.0412 0.0000 34.7121
30 29 2.0648 5.3444 3.4455 30.2142 0.0000 36.4366
31 29 1.3799 3.6218 5.6523 26.2918 0.0000 34.7248
32 29 -0.1404 5.5930 5.2009 27.0484 0.0000 32.0158
33 29 0.2593 3.8038 7.3062 24.5719 0.0000 38.0362
34 29 2.0426 5.5494 7.4919 29.1011 0.0000 36.0876
35 29 1.8955 3.7608 8.8994 22.5369 0.0000 34.3864
36 29 -0.1443 5.4827 9.0657 27.7790 0.0000 38.2847
37 29 -0.0222 3.2757 11.3776 27.2463 0.0000 38.9380
38 29 1.5308 5.1729 10.5934 31.2307 0.0000 37.1689
39 29 2.0562 3.2204 12.3639 23.7275 0.0000 35.8254
40 29 0.2086 5.4479 12.6822 29.2370 0.0000 32.3336
41 29 0.0318 3.2230 13.9954 27.3502 0.0000 32.4695
42 29 1.9061 5.8129 14.6173 26.7554 0.0000 32.3881
43 29 1.9090 3.8095 15.9719 31.4002 0.0000 36.1707
44 29 -0.2242 5.6452 16.6028 28.5348 0.0000 31.7777
45 29 0.3415 3.1326 18.2947 27.5925 0.0000 42.3898
46 29 1.8741 5.0678 18.2339 26.8173 0.0000 38.5985
47 29 1.7943 3.6531 19.9374 29.0430 0.0000 31.9848
48 29 -0.0361 5.2206 19.6428 22.1013 0.0000 36.1425
49 29 0.0771 7.2124 0.0133 28.6139 0.0000 36.1523
50 29 1.7914 9.2019 -0.1274 26.4487 0.0000 40.4511
51 29 1.9362 7.6108 2.0095 27.8032 0.0000 42.7953
52 29 0.0733 8.8010 1.8882 27.5652 0.0000 34.9177
53 29 -0.1301 7.3261 3.5953 28.4432 0.0000 32.7897
54 29 2.0102 9.0353 3.6694 32.0286 0.0000 37.2454
55 29 1.8051 7.0450 5.4616 31.5642 0.0000 32.5754
56 29 -0.0211 9.3133 5.1993 30.6406 0.0000 37.6893
57 29 0.1563 7.0551 7.0627 24.9415 0.0000 36.9860
58 29 1.8479 9.0984 6.9725 29.8622 0.0000 37.6651
59 29 1.9504 7.6079 9.3614 29.8354 0.0000 40.7864
60 29 -0.1109 8.8696 9.1482 27.0559 0.0000 40.1834
61 29 0.1557 7.4487 11.2231 23.8433 0.0000 38.5111
62 29 1.7611 8.9433 11.1409 31.9702 0.0000 37.6604
63 29 1.6932 7.3646 12.8616 25.1197 0.0000 37.9698
64 29 0.2476 9.2695 12.4743 25.0299 0.0000 39.8681
65 29 0.1916 7.1257 14.4906 31.3455 0.0000 32.5091
66 29 1.6760 8.9413 14.4655 28.0341 0.0000 33.0672
67 29 1.5803 7.2628 16.0270 23.1200 0.0000 34.5297
68 29 -0.1243 8.9408 16.5322 24.4901 0.0000 36.0584
69 29 -0.2757 6.9864 18.4233 24.8641 0.0000 39.7281
70 29 1.5949 9.0713 18.1661 30.9960 0.0000 35.1138
71 29 1.6207 7.3344 19.8291 29.9156 0.0000 37.6359
72 29 -0.1626 9.0035 19.9228 28.5828 0.0000 36.2300
73 29 0.2810 10.8282 -0.0459 23.8007 0.0000 38.7919
74 29 1.8108 12.8495 -0.1425 28.2354 0.0000 39.6662
75 29 1.9686 10.6514 1.9713 27.8060 0.0000 38.5583
76 29 0.0928 12.3646 1.8037 30.1884 0.0000 40.2655
77 29 -0.2379 10.9143 3.6247 26.9164 0.0000 35.7630
78 29 1.7608 12.6913 3.7380 22.7175 0.0000 34.2152
79 29 1.6974 11.0394 5.2378 25.4804 0.0000 38.2607
80 29 0.0290 12.3996 5.5251 23.2297 0.0000 33.8996
81 29 -0.0606 10.8997 7.1965 30.6277 0.0000 35.1782
82 29 1.8732 12.7669 7.0038 26.9484 0.0000 40.1562
83 29 1.3923 10.6585 8.8980 24.3276 0.0000 39.6260
84 29 -0.0411 12.4170 9.1193 28.8975 0.0000 41.4642
85 29 0.0499 10.6519 10.5312 29.3592 0.0000 40.3814
86 29 1.6523 12.4737 11.1310 25.7575 0.0000 38.1079
87 29 1.8681 10.8732 12.8522 26.1672 0.0000 42.0149
88 29 -0.2075 12.5871 12.6054 22.0914 0.0000 36.0769
89 29 -0.0248 10.6480 14.9109 27.0969 0.0000 41.8342
90 29 1.8879 12.9928 14.5111 29.4444 0.0000 36.5752
91 29 1.9073 10.8988 16.0446 28.5750 0.0000 40.2376
92 29 -0.0395 12.7281 16.3783 30.0020 0.0000 40.6126
93 29 0.0324 11.0641 18.1488 29.7708 0.0000 35.2370
94 29 1.7543 12.5604 18.1567 28.8156 0.0000 33.6515
95 29 2.1105 10.3523 19.9177 29.3602 0.0000 38.5246
96 29 -0.1268 12.7197 19.9649 30.7614 0.0000 32.4737
97 29 -0.3411 14.4381 -0.2571 23.3090 0.0000 41.0937
98 29 1.8175 15.8302 -0.1783 25.2906 0.0000 38.9369
99 29 1.5366 14.2950 1.6308 27.8308 0.0000 32.9926
100 29 0.2838 16.1604 1.6703 27.5122 0.0000 41.5963
101 29 -0.0563 14.5424 3.5829 28.4923 0.0000 40.8423
102 29 1.9170 16.6241 3.4405 31.1909 0.0000 40.5429
103 29 1.4891 14.1792 5.5395 28.5868 0.0000 41.9042
104 29 -0.1662 16.0582 5.5341 23.3828 0.0000 38.4574
105 29 -0.3495 14.6522 7.3742 29.6346 0.0000 32.7742
106 29 1.9424 16.2283 7.1440 23.3725 0.0000 32.3716
107 29 2.0275 14.3257 9.2638 28.5088 0.0000 35.3761
108 29 -0.1372 16.5080 8.9521 23.1701 0.0000 38.3662
109 29 0.1379 14.6051 10.7922 26.0396 0.0000 42.4719
110 29 1.6987 16.1446 10.8120 26.6345 0.0000 40.5330
111 29 1.8083 14.5413 12.8575 27.7271 0.0000 36.6293
112 29 0.0160 16.1501 12.7531 30.4816 0.0000 40.1048
113 29 0.2262 14.3450 14.3523 26.1652 0.0000 41.7107
114 29 1.9873 16.2388 14.2822 23.6969 0.0000 41.0239
115 29 1.9651 14.4416 16.4011 27.8221 0.0000 35.0501
116 29 -0.0766 16.2305 16.1267 31.0841 0.0000 38.8987
117 29 -0.1435 14.2416 17.9293 27.7560 0.0000 32.5910
118 29 1.9316 16.5287 18.3033 25.7909 0.0000 40.5180
119 29 1.8124 14.4463 19.7455 24.5870 0.0000 36.8260
120 29 -0.0478 16.4760 19.8556 24.4424 0.0000 32.1925
121 29 0.0873 17.8157 0.1240 22.8327 0.0000 37.7068
122 29 2.0256 19.8698 -0.1425 25.9599 0.0000 37.8624
123 29 1.4620 17.9779 1.7223 30.4372 0.0000 31.9278
124 29 -0.0973 19.6883 1.5058 30.2019 0.0000 41.6843
125 29 -0.1863 17.9177 3.4659 26.9997 0.0000 38.9395
126 29 1.8432 19.9131 3.9626 25.3846 0.0000 40.4519
127 29 1.8300 18.4003 5.4486 29.6118 0.0000 33.5273
128 29 0.0079 20.0488 5.3103 25.1672 0.0000 42.6093
129 29 -0.0152 17.8771 7.2243 29.2622 0.0000 33.6768
130 29 2.0114 19.6838 7.2149 22.8488 0.0000 32.3796
131 29 1.7382 18.2579 9.0859 23.3544 0.0000 38.9425
132 29 0.0567 20.0669 9.1481 25.6875 0.0000 33.0215
133 29 -0.1395 18.4339 10.7754 23.4256 0.0000 41.4235
134 29 1.8383 19.9247 10.7252 26.6480 0.0000 35.2096
135 29 1.9096 18.3482 12.7350 31.8056 0.0000 32.3798
136 29 0.0440 19.5760 12.7088 26.6541 0.0000 39.0176
137 29 0.1191 18.0836 14.5630 26.5334 0.0000 36.0993
138 29 1.9175 19.7889 14.4117 29.0999 0.0000 38.0795
139 29 1.4189 18.2791 16.1595 27.0305 0.0000 34.8163
140 29 -0.3326 20.0326 16.1580 24.3213 0.0000 35.9884
141 29 0.1235 18.1848 18.0856 28.7240 0.0000 42.2812
142 29 1.9831 19.9609 18.0096 24.6631 0.0000 36.4451
143 29 2.0674 17.7943 20.1461 29.6586 0.0000 34.6404
144 29 0.3548 19.5689 20.1403 26.2067 0.0000 36.0003
145 29 4.1670 0.0102 0.1392 31.4430 0.0000 38.2497
146 29 5.5599 2.1037 -0.0910 24.9747 0.0000 33.5874
147 29 5.6662 -0.0903 1.5653 22.2940 0.0000 39.2924
148 29 3.4693 1.8941 1.8333 31.3848 0.0000 38.4205
149 29 3.4098 0.3487 3.7925 25.9898 0.0000 32.7046
150 29 5.3584 1.4319 3.7162 30.9009 0.0000 39.6425
151 29 5.2305 -0.0457 5.1098 26.9659 0.0000 42.2660
152 29 3.8871 1.7842 5.4926 26.8553 0.0000 33.3295
153 29 3.4481 0.3917 7.4257 31.0796 0.0000 33.3006
154 29 5.6854 1.6716 6.9628 27.7253 0.0000 32.3819
155 29 5.4235 -0.1196 8.6823 30.3688 0.0000 39.1794
156 29 3.4466 1.8378 9.0104 29.1432 0.0000 35.9947
157 29 3.8190 -0.0054 10.8489 26.9965 0.0000 34.7989
158 29 5.2512 2.0992 11.1781 22.1149 0.0000 37.5197
159 29 5.2700 0.1779 12.5784 27.9839 0.0000 38.1519
160 29 3.5547 1.5175 12.2917 30.5892 0.0000 37.8061
161 29 3.5746 -0.0022 14.6528 24.9784 0.0000 40.6819
162 29 5.1032 1.7868 14.5063 24.6736 0.0000 41.8753
163 29 5.6066 -0.2619 16.0338 31.4956 0.0000 33.2212
164 29 3.7535 1.6122 16.4549 26.0644 0.0000 42.0069
165 29 3.5097 0.1059 18.2111 30.5021 0.0000 36.3440
166 29 5.3506 1.8097 18.0254 25.9875 0.0000 36.9921
167 29 5.3188 -0.1183 19.6313 23.0743 0.0000 37.6931
168 29 3.6478 1.7449 19.5502 29.8605 0.0000 40.0984
169 29 3.6894 3.6309 0.2235 30.1711 0.0000 40.3776
170 29 5.2242 5.5444 -0.0536 29.5019 0.0000 42.7448
171 29 5.4571 3.4547 1.9922 24.1604 0.0000 33.9505
172 29 3.2423 5.6365 1.4795 29.5513 0.0000 37.1265
173 29 3.5353 3.4381 3.3804 25.1338 0.0000 39.1817
174 29 5.4698 5.2642 3.2905 23.5379 0.0000 37.7658
175 29 5.4070 3.8039 5.2107 26.2338 0.0000 33.0497
176 29 3.7124 5.5515 5.5900 29.7866 0.0000 37.2570
177 29 3.4325 3.7029 7.3073 24.1358 0.0000 31.7525
178 29 5.6367 5.0823 6.9575 21.9190 0.0000 34.6760
179 29 5.2728 3.8623 9.0639 23.5729 0.0000 36.7772
180 29 3.5137 5.4518 9.0958 23.6746 0.0000 38.7005
181 29 3.7816 3.4549 10.7702 29.3206 0.0000 35.3630
182 29 5.4204 5.4446 10.6541 29.1101 0.0000 41.2814
183 29 5.5174 3.6328 12.8771 26.2388 0.0000 41.8963
184 29 3.3758 5.7651 12.4738 30.9119 0.0000 36.2448
185 29 3.4024 3.9238 14.4114 22.7303 0.0000 33.4845
186 29 5.2442 5.5921 14.0610 30.0679 0.0000 35.1422
187 29 5.3516 3.6590 16.0737 24.5400 0.0000 42.0849
188 29 3.9852 5.1506 15.9526 21.8194 0.0000 36.0868
189 29 3.6496 3.6425 18.0100 30.8917 0.0000 39.5763
190 29 5.4773 5.5210 18.0295 31.2497 0.0000 37.9340
191 29 5.6246 3.3228 19.7084 28.3287 0.0000 38.0961
192 29 3.5339 5.7923 19.7571 21.6297 0.0000 40.7645
193 29 3.4689 7.3532 0.1364 22.3863 0.0000 42.5739
194 29 6.0025 9.0982 0.2012 25.9986 0.0000 34.5693
195 29 5.2992 7.4439 1.7633 25.7287 0.0000 32.8412
196 29 3.3921 9.2230 1.7851 27.7130 0.0000 38.2906
197 29 4.1648 7.7121 3.3428 22.6286 0.0000 38.1905
198 29 5.3285 8.9166 3.7406 26.9522 0.0000 35.8159
199 29 5.1555 7.4618 5.4905 25.0368 0.0000 40.6035
200 29 3.5811 9.0333 5.6041 25.6782 0.0000 41.0454
201 29 3.6484 7.0497 7.0701 29.0552 0.0000 41.4223
202 29 5.1970 8.9553 7.3811 22.3338 0.0000 37.6034
203 29 5.6647 7.3419 9.2720 30.5464 0.0000 32.4194
204 29 3.5399 8.9646 8.7680 24.3488 0.0000 32.3602
205 29 3.8101 7.1212 10.8247 27.5270 0.0000 35.8625
206 29 5.4132 9.2049 11.0424 29.5154 0.0000 36.8372
207 29 5.5047 7.0655 12.6915 31.9458 0.0000 31.7185
208 29 3.5714 8.9450 12.9617 23.6302 0.0000 34.5503
209 29 3.5347 7.5757 14.5971 22.4864 0.0000 41.9870
210 29 5.5116 8.9137 14.4716 27.4370 0.0000 37.3220
211 29 5.7913 7.1845 16.1510 26.2236 0.0000 39.3933
212 29 3.7076 8.9805 16.6392 24.8027 0.0000 39.2895
213 29 3.5289 7.1868 17.7825 28.0077 0.0000 41.1965
214 29 5.5234 8.9145 17.8843 27.4611 0.0000 40.8567
215 29 5.2226 7.2824 19.9719 27.0323 0.0000 40.4006
216 29 3.6903 9.1775 19.7329 28.6570 0.0000 33.9008
217 29 3.6659 10.9969 -0.3094 31.1825 0.0000 41.8369
218 29 5.5648 12.5592 -0.0581 31.8506 0.0000 39.4356
219 29 5.5525 11.0071 1.9697 24.7545 0.0000 41.9947
220 29 3.4107 12.3845 2.1780 24.6900 0.0000 32.4496
221 29 3.6060 10.8202 3.7479 30.2617 0.0000 42.3337
222 29 5.4222 12.5206 3.2504 28.2268 0.0000 39.4504
223 29 5.6565 10.9256 5.8616 24.2413 0.0000 41.7478
224 29 3.5174 12.5694 5.2430 22.3413 0.0000 38.9279
225 29 3.3103 10.8879 6.8562 21.5564 0.0000 40.9796
226 29 5.7914 12.6431 7.3402 28.1759 0.0000 39.7663
227 29 5.5097 10.7239 9.1671 22.6211 0.0000 42.3880
228 29 3.3259 12.7281 8.9944 25.5542 0.0000 41.3895
229 29 3.4668 10.6641 10.6327 32.1649 0.0000 32.0956
230 29 5.7300 12.5450 10.4459 22.3359 0.0000 35.5173
231 29 5.6337 10.7408 12.4645 28.7232 0.0000 32.7970
232 29 3.5839 12.5862 12.6739 29.6303 0.0000 41.5358
233 29 3.7468 10.8485 14.3867 28.5984 0.0000 36.0998
234 29 5.3824 12.7161 14.2218 26.1302 0.0000 41.6260
235 29 5.3335 11.1744 16.5498 25.8894 0.0000 35.2643
236 29 3.7405 12.5631 16.2249 27.4377 0.0000 34.4564
237 29 3.8045 10.9094 17.9924 25.7399 0.0000 37.3487
238 29 5.3021 12.7198 18.1142 28.0783 0.0000 32.3836
239 29 5.5299 10.6826 19.4862 25.7800 0.0000 35.9837
240 29 3.6213 12.3283 19.9391 25.4203 0.0000 32.3287
241 29 3.5182 14.5674 0.0360 30.9506 0.0000 33.5373
242 29 5.5389 16.3257 -0.0508 31.6936 0.0000 38.3813
243 29 5.1100 14.3680 1.8312 21.5372 0.0000 40.5962
244 29 3.7414 16.0744 1.5092 26.9238 0.0000 32.0293
245 29 3.3339 14.4494 3.7984 25.4910 0.0000 32.9546
246 29 5.3903 16.3971 3.7651 26.9442 0.0000 37.8436
247 29 5.5717 14.5414 5.5265 29.8727 0.0000 37.6055
248 29 3.8289 16.1955 5.7559 28.3774 0.0000 38.6762
249 29 3.6111 15.0381 6.9640 30.8460 0.0000 32.8748
250 29 5.7290 16.0485 7.3864 27.0199 0.0000 34.4417
251 29 5.3529 14.4233 8.9725 24.4058 0.0000 35.5354
252 29 3.7043 15.9874 8.7915 22.3356 0.0000 36.1552
253 29 3.5488 14.3668 10.5848 31.9273 0.0000 35.9211
254 29 5.2585 16.2288 11.0978 28.2505 0.0000 41.2218
255 29 5.7853 14.3057 12.7744 29.6610 0.0000 36.7955
256 29 3.5801 16.3337 12.5010 22.4747 0.0000 41.6100
257 29 3.3882 14.3671 14.5468 25.1520 0.0000 35.2384
258 29 5.3435 16.2002 14.3204 31.0601 0.0000 41.1604
259 29 5.3302 14.6575 16.0223 27.6289 0.0000 40.0528
260 29 3.6188 16.2470 16.1653 28.4849 0.0000 39.7744
261 29 3.4498 14.2574 17.9530 23.9449 0.0000 41.3145
262 29 5.5506 16.1855 18.1591 21.8523 0.0000 41.0311
263 29 5.3883 14.6330 19.7703 29.4975 0.0000 32.4681
264 29 3.5153 16.6099 19.9017 26.6632 0.0000 41.5991
265 29 3.6100 17.9952 0.0775 22.2230 0.0000 39.0048
266 29 5.6175 19.9793 0.0634 27.8245 0.0000 40.6554
267 29 5.0672 17.8421 1.8855 24.7287 0.0000 37.8119
268 29 3.3112 19.5377 1.4143 26.3354 0.0000 34.8785
269 29 3.4090 18.4078 3.7114 31.2065 0.0000 35.7383
270 29 5.4640 19.8315 3.5818 21.9079 0.0000 35.0972
271 29 5.7544 18.2902 5.5725 22.7818 0.0000 32.6523
272 29 3.5492 19.8932 5.3926 27.1741 0.0000 33.4179
273 29 3.4574 18.1163 7.2551 26.1087 0.0000 32.8682
274 29 5.2592 20.1199 7.2282 22.0992 0.0000 32.9463
275 29 5.4874 17.9237 9.5489 30.9425 0.0000 41.0162
276 29 3.4312 19.8551 8.7806 31.5017 0.0000 39.7097
277 29 3.7677 17.7672 10.7343 22.4811 0.0000 42.2602
278 29 5.9195 19.7300 11.0302 23.5360 0.0000 31.7583
279 29 5.5804 18.1259 12.8520 23.1655 0.0000 35.3507
280 29 3.5625 20.1334 12.4057 30.0474 0.0000 33.5842
281 29 3.6665 18.4237 14.6135 24.4866 0.0000 41.2785
282 29 5.4875 20.1114 14.2684 26.9932 0.0000 40.3144
283 29 5.1310 18.0815 16.3455 23.9605 0.0000 35.2596
284 29 3.3473 20.0450 16.4707 30.5947 0.0000 39.3328
285 29 3.2406 18.2582 18.3087 29.4077 0.0000 35.8221
286 29 5.2929 19.7299 17.7589 27.5438 0.0000 36.8872
287 29 5.6796 18.5036 19.6158 26.6186 0.0000 35.1527
288 29 3.8296 19.8142 19.9589 30.7806 0.0000 33.3154
289 29 7.1764 0.0562 -0.2706 30.0603 0.0000 35.2820
290 29 8.9866 1.7373 -0.1162 22.9386 0.0000 36.8432
291 29 8.9158 0.1377 1.9377 31.4160 0.0000 34.3800
292 29 6.9995 2.1078 1.6874 29.1618 0.0000 42.0804
293 29 6.9916 -0.1108 3.6845 32.1066 0.0000 33.0962
294 29 9.3409 2.1926 3.4209 24.4614 0.0000 32.3597
295 29 8.8153 -0.1302 5.6204 28.6086 0.0000 33.4699
296 29 7.1543 1.6928 5.6743 28.4616 0.0000 40.8177
297 29 7.2658 -0.0506 7.1204 21.7068 0.0000 33.0506
298 29 9.3308 1.5089 7.1389 27.4815 0.0000 40.7456
299 29 8.8812 0.0383 8.6529 27.9661 0.0000 33.9585
300 29 7.3255 1.7792 8.8891 31.0345 0.0000 41.4511
301 29 7.3027 0.0943 10.9618 29.7099 0.0000 38.5453
302 29 9.1317 1.7005 10.8101 27.0565 0.0000 40.3446
303 29 8.9763 0.2251 12.5156 22.4863 0.0000 35.4363
304 29 7.0391 2.2066 12.6782 25.3172 0.0000 34.7565
305 29 7.1864 0.0466 14.6215 21.9505 0.0000 32.8031
306 29 9.1072 1.7025 14.4573 23.1753 0.0000 32.8599
307 29 8.6768 0.0565 16.1800 23.3593 0.0000 39.4587
308 29 7.5254 1.7176 16.4389 30.5915 0.0000 38.5851
309 29 7.5854 -0.1779 17.9258 29.5810 0.0000 34.9818
310 29 8.9016 1.8615 18.2102 25.6917 0.0000 34.0090
311 29 9.1292 0.0708 19.4591 21.7489 0.0000 39.8120
312 29 7.1493 1.7182 19.9619 28.7132 0.0000 36.7444
313 29 7.4192 3.5789 0.1345 29.8344 0.0000 35.0969
314 29 8.8213 5.4146 -0.1662 26.1918 0.0000 35.8505
315 29 8.7489 3.4387 1.9711 29.6766 0.0000 42.6826
316 29 7.3391 5.2849 1.9726 22.4785 0.0000 42.8022
317 29 7.3648 3.3227 3.6657 27.5901 0.0000 38.9916
318 29 8.6560 5.5684 3.5058 22.0767 0.0000 38.7664
319 29 9.0101 3.4560 5.2520 27.8196 0.0000 39.9409
320 29 7.2861 5.4881 5.5502 32.0006 0.0000 41.5347
321 29 7.3246 3.6272 7.3560 27.1313 0.0000 32.9243
322 29 9.0542 5.0436 7.2172 27.4030 0.0000 41.1039
323 29 8.7634 3.6837 8.9655 30.0104 0.0000 34.0331
324 29 7.2952 5.3649 9.0684 29.5539 0.0000 31.9123
325 29 7.2132 3.3703 11.3070 23.5643 0.0000 38.3484
326 29 8.9931 5.2822 11.2426 29.4507 0.0000 33.8074
327 29 9.3014 3.4100 12.7440 26.7044 0.0000 35.2943
328 29 7.5219 5.0977 12.8675 29.0625 0.0000 42.8490
329 29 7.2189 3.5492 14.4534 22.5006 0.0000 42.3277
330 29 8.7518 5.1603 13.9269 21.7518 0.0000 38.8295
331 29 8.6096 3.4589 16.1628 23.8768 0.0000 32.3194
332 29 7.1722 5.4707 16.2472 25.4798 0.0000 38.0309
333 29 7.5019 3.5096 18.2660 29.2257 0.0000 34.4943
334 29 9.1842 5.3919 17.9773 22.3109 0.0000 33.9840
335 29 9.0031 3.5298 19.5954 30.6139 0.0000 36.1515
336 29 7.3094 5.4250 19.7904 25.7064 0.0000 33.1259
337 29 7.2108 7.3781 0.1905 30.5285 0.0000 37.5530
338 29 8.8444 8.6976 -0.0315 26.8723 0.0000 37.2539
339 29 9.1076 7.3905 1.4701 27.3228 0.0000 39.8412
340 29 7.0129 9.0227 1.7204 28.8025 0.0000 32.7358
341 29 7.1102 7.0644 3.8418 31.1576 0.0000 32.5022
342 29 9.2110 9.2018 3.6462 30.2206 0.0000 33.9400
343 29 9.1864 7.1595 5.4514 28.4804 0.0000 31.7994
344 29 7.4402 8.7336 5.6512 23.5856 0.0000 38.1035
345 29 7.2814 7.2719 7.1118 22.2631 0.0000 39.7427
346 29 9.1559 9.3984 7.4945 29.4504 0.0000 41.0287
347 29 9.2402 6.8634 9.2905 28.6451 0.0000 34.8823
348 29 7.1406 9.2925 9.3622 22.8582 0.0000 42.0775
349 29 7.2717 7.3986 11.2352 30.2823 0.0000 38.4779
350 29 9.1157 9.0610 11.1147 24.3225 0.0000 40.6446
351 29 8.9451 7.2474 12.8549 30.9829 0.0000 36.9109
352 29 7.3310 9.0950 12.3489 29.7202 0.0000 35.3991
353 29 7.6745 7.0799 14.0441 26.2673 0.0000 40.3227
354 29 9.0360 9.0581 14.2989 23.4432 0.0000 35.6643
355 29 8.9476 7.4093 16.5635 27.6013 0.0000 33.5709
356 29 7.1447 8.8193 16.3205 22.3877 0.0000 34.5063
357 29 7.1830 7.0436 18.1920 23.6024 0.0000 32.6018
358 29 9.0603 9.0867 17.9703 27.2838 0.0000 39.4383
359 29 9.1265 7.4790 19.5779 31.8937 0.0000 38.9205
360 29 7.1476 8.9790 20.0406 26.9693 0.0000 42.2769
361 29 6.9287 10.8741 0.0878 29.8682 0.0000 40.9375
362 29 8.8664 12.7891 0.1724 28.2392 0.0000 41.1116
363 29 8.7661 10.7357 2.0041 27.3479 0.0000 40.7552
364 29 7.1418 12.5117 1.9661 31.9988 0.0000 34.4966
365 29 7.2868 10.8691 3.7451 24.7962 0.0000 39.7325
366 29 8.8810 12.6298 3.7875 23.7763 0.0000 42.5404
367 29 9.0673 10.8708 5.2871 29.2188 0.0000 36.6044
368 29 7.2075 12.4744 4.9828 30.6620 0.0000 38.6762
369 29 7.3391 10.3760 7.1836 26.5299 0.0000 33.2744
370 29 8.8480 12.4975 6.8278 26.7245 0.0000 37.7918
371 29 8.5270 11.1919 8.8599 24.6046 0.0000 41.4243
372 29 7.5096 12.5750 9.0133 31.3598 0.0000 39.8395
373 29 7.0412 10.8327 10.8284 31.3265 0.0000 40.6796
374 29 8.8045 12.7808 10.9501 26.6024 0.0000 42.3552
375 29 9.1738 10.5729 12.4173 30.3199 0.0000 36.7734
376 29 7.0156 12.6660 12.5525 22.0663 0.0000 40.5388
377 29 7.2254 10.8758 14.3666 29.3962 0.0000 37.4391
378 29 9.1602 12.8371 14.4739 27.4894 0.0000 42.8115
379 29 8.6202 10.8688 16.4160 23.5275 0.0000 34.9856
380 29 7.3267 12.7904 16.3599 24.6226 0.0000 37.0045
381 29 7.0250 10.7647 18.1684 29.9363 0.0000 39.0728
382 29 8.9362 12.8026 17.8879 22.3496 0.0000 42.3382
383 29 9.0037 10.9507 19.6597 26.7356 0.0000 33.3796
384 29 7.3179 12.7774 19.6644 27.5523 0.0000 32.2068
385 29 7.1546 14.4366 0.0535 25.1169 0.0000 39.9128
386 29 8.8978 16.0150 0.1895 23.2546 0.0000 31.7497
387 29 9.2690 14.2907 1.8852 23.2105 0.0000 35.4647
388 29 6.9350 16.3100 1.8496 32.1170 0.0000 33.6163
389 29 6.8178 14.5330 3.7185 21.6025 0.0000 40.8319
390 29 9.1321 16.2821 3.4928 23.1454 0.0000 34.9506
391 29 9.0919 14.5778 5.5097 31.8332 0.0000 36.0122
392 29 7.1074 16.0982 4.8511 30.8440 0.0000 38.5768
393 29 6.9013 14.5693 6.8788 26.5903 0.0000 38.8956
394 29 9.1421 16.1608 7.5768 23.3128 0.0000 33.8496
395 29 8.9300 14.1043 9.1750 29.8852 0.0000 40.0034
396 29 7.3981 15.8339 8.8331 29.9513 0.0000 37.3737
397 29 7.1801 14.1233 11.2093 24.0734 0.0000 35.0366
398 29 9.0748 15.7914 10.7469 26.9876 0.0000 42.3941
399 29 8.8776 14.5989 12.8232 32.1110 0.0000 33.6964
400 29 6.8630 16.0294 12.7375 24.6347 0.0000 40.2927
401 29 7.4784 14.3630 14.4362 22.3811 0.0000 38.5572
402 29 8.8402 16.0796 14.2095 21.6814 0.0000 33.3220
403 29 8.9340 14.3972 16.2568 22.7408 0.0000 35.9752
404 29 6.9760 16.2484 15.8929 27.6652 0.0000 39.3965
405 29 6.9291 14.4946 18.3902 31.8208 0.0000 35.8827
406 29 9.1991 16.3364 18.5335 27.0936 0.0000 35.9889
407 29 9.5590 14.7270 19.8278 21.6701 0.0000 36.1281
408 29 7.5111 16.4966 19.8905 31.4017 0.0000 38.1328
409 29 7.3221 17.8956 0.0692 28.8196 0.0000 34.0522
410 29 9.0177 19.8757 -0.0512 25.1186 0.0000 39.4148
411 29 9.0293 17.8118 1.6943 30.2816 0.0000 42.7848
412 29 7.4771 19.7099 1.5815 24.5033 0.0000 37.9637
413 29 7.4063 18.2732 3.6892 23.3180 0.0000 38.8336
414 29 8.9887 19.9388 3.4455 28.1333 0.0000 40.4191
415 29 8.7547 18.1064 5.4695 23.5827 0.0000 41.1900
416 29 7.3634 19.7773 5.7134 30.7576 0.0000 40.5614
417 29 7.4044 17.9181 7.2034 30.2250 0.0000 41.1963
418 29 9.0247 19.9226 7.5317 27.4777 0.0000 39.5808
419 29 9.3849 18.2757 9.4007 26.0381 0.0000 32.3085
420 29 7.2983 20.1198 9.0911 29.2299 0.0000 32.4196
421 29 7.2286 18.1475 10.7511 27.7758 0.0000 35.0662
422 29 9.1530 19.6403 10.7339 32.0369 0.0000 33.4458
423 29 8.8916 18.0437 12.8193 31.9696 0.0000 33.3323
424 29 7.2171 19.7418 12.8515 26.3118 0.0000 33.3693
425 29 7.2562 17.9075 14.1607 23.8170 0.0000 40.5728
426 29 8.7706 19.7960 14.3114 25.4289 0.0000 40.6751
427 29 9.2554 18.2027 16.3388 24.6883 0.0000 42.3947
428 29 7.0787 19.9089 16.1460 23.3831 0.0000 35.4084
429 29 7.1530 18.0068 18.2172 28.7635 0.0000 34.3269
430 29 9.1364 19.4776 18.0956 26.4468 0.0000 32.1943
431 29 9.1286 18.1594 20.0396 29.5763 0.0000 32.8205
432 29 7.0149 20.2813 19.9696 25.6749 0.0000 41.8645
433 29 10.4320 0.2108 -0.0822 26.8896 0.0000 41.0470
434 29 12.6825 1.5691 -0.2929 27.2127 0.0000 42.7508
435 29 12.6714 -0.1468 1.6531 22.6495 0.0000 38.4412
436 29 10.7360 1.8816 1.9111 30.7841 0.0000 41.5045
437 29 10.7863 -0.2647 3.7649 24.1527 0.0000 35.9229
438 29 12.6274 1.7766 3.7619 25.2546 0.0000 35.0045
439 29 12.7664 0.2308 5.1627 25.8031 0.0000 36.1111
440 29 10.9850 1.7640 5.1622 24.7108 0.0000 36.5313
441 29 11.2133 0.3500 7.2972 28.2933 0.0000 39.1725
442 29 12.5506 1.7795 7.2514 25.7931 0.0000 41.5955
443 29 12.6157 0.0532 9.0802 27.7175 0.0000 33.7478
444 29 10.4708 1.9076 9.0360 27.0166 0.0000 33.3603
445 29 10.9056 -0.2055 10.9207 30.7475 0.0000 32.3885
446 29 12.8050 1.7430 10.9031 22.8855 0.0000 31.9912
447 29 12.7486 0.5933 12.8052 25.8185 0.0000 36.8365
448 29 10.8435 1.5307 12.5872 29.9441 0.0000 37.0390
449 29 10.8662 0.2070 14.5535 31.7556 0.0000 35.2024
450 29 12.7456 1.5002 14.4565 28.4764 0.0000 36.3395
451 29 12.3094 0.0283 16.0036 31.8734 0.0000 41.0993
452 29 10.7366 1.6706 16.2374 29.9337 0.0000 33.1066
453 29 11.1058 0.3000 18.0605 31.2430 0.0000 36.9255
454 29 12.1531 1.8609 18.0979 25.6481 0.0000 35.3592
455 29 12.6029 -0.2130 19.8062 31.0698 0.0000 37.0270
456 29 10.9079 2.0157 19.7243 30.4641 0.0000 40.1493
457 29 10.5509 3.3939 0.1339 25.4651 0.0000 42.6194
458 29 12.7971 5.4815 0.0235 24.5256 0.0000 36.6640
459 29 12.9729 3.5166 1.6340 30.4871 0.0000 38.1846
460 29 10.8900 5.2227 2.0317 29.0741 0.0000 40.9766
461 29 10.7338 3.6438 3.7055 30.0437 0.0000 37.0267
462 29 12.6498 5.1537 3.4751 24.7840 0.0000 36.0070
463 29 12.9973 3.8604 5.5490 26.7640 0.0000 32.9744
464 29 10.7094 5.2459 5.2990 28.2353 0.0000 36.7070
465 29 10.7037 3.5152 6.8590 30.0310 0.0000 34.9101
466 29 12.5357 5.4220 7.2265 27.9010 0.0000 39.9684
467 29 12.5635 3.6831 9.1123 31.5235 0.0000 38.3391
468 29 10.5729 5.5396 9.0612 31.9007 0.0000 41.1869
469 29 11.1489 3.7613 10.6786 27.6980 0.0000 33.0793
470 29 12.8317 5.3646 10.8177 28.4738 0.0000 40.5117
471 29 12.4760 4.0518 12.9985 21.4531 0.0000 35.7250
472 29 10.8209 5.5888 12.6691 23.6100 0.0000 37.3154
473 29 10.8134 3.6009 14.6535 22.6949 0.0000 32.7986
474 29 12.5744 5.4654 14.4244 28.7160 0.0000 37.3236
475 29 12.9146 3.8243 16.1408 21.5698 0.0000 35.4837
476 29 10.8781 5.4028 15.9879 30.2370 0.0000 38.6929
477 29 10.9594 3.5169 17.7547 28.2269 0.0000 40.6521
478 29 12.4852 5.4895 18.0230 29.6118 0.0000 32.1263
479 29 12.7272 3.8922 19.9129 28.7992 0.0000 35.0564
480 29 10.8164 5.4904 19.8151 22.8807 0.0000 31.8242
481 29 10.8519 7.1857 0.1306 23.2619 0.0000 36.5540
482 29 12.6531 9.0919 -0.2509 24.4423 0.0000 34.0415
483 29 12.7598 7.2450 2.1366 23.5459 0.0000 36.0272
484 29 11.1051 8.8868 1.7499 23.0380 0.0000 38.2091
485 29 10.7940 7.2389 3.5867 21.9469 0.0000 32.0664
486 29 12.4796 9.0641 3.5085 24.7065 0.0000 41.8175
487 29 12.6796 7.4224 5.3022 27.2294 0.0000 42.1761
488 29 11.3029 9.4481 5.0648 24.4466 0.0000 38.1916
489 29 11.1904 7.2845 6.9895 21.4543 0.0000 40.7176
490 29 12.6503 8.9244 7.0756 24.8139 0.0000 35.3359
491 29 12.9149 7.2698 8.8349 29.6902 0.0000 39.6378
492 29 10.8241 9.2927 9.2409 26.7415 0.0000 40.0451
493 29 10.9931 7.3040 10.7579 23.5125 0.0000 33.3692
494 29 12.8645 8.7501 10.5571 24.0346 0.0000 32.3124
495 29 12.5497 7.2248 12.6659 30.2240 0.0000 42.8572
496 29 10.9896 8.9950 12.4905 27.8740 0.0000 40.7644
497 29 10.5960 7.0956 14.6193 23.2951 0.0000 34.2478
498 29 12.2397 8.9035 14.6800 28.1089 0.0000 40.4913
499 29 12.7927 7.0833 16.2544 21.6071 0.0000 36.2894
500 29 10.6339 9.3382 16.2512 29.8656 0.0000 34.7377
501 29 10.7513 6.9685 18.2302 23.0439 0.0000 41.9551
502 29 12.6662 8.8502 18.0097 24.4623 0.0000 38.4149
503 29 12.4787 7.2531 19.9841 31.8109 0.0000 39.7598
504 29 10.5430 8.7233 19.8897 23.4664 0.0000 41.9954
505 29 11.1865 10.8197 -0.1633 21.9941 0.0000 33.2965
506 29 12.5994 12.6966 -0.1301 30.2838 0.0000 35.6509
507 29 12.4627 10.7360 1.7885 24.8719 0.0000 34.9177
508 29 10.4928 12.4497 1.6180 22.2679 0.0000 42.1897
509 29 10.4999 10.9701 3.5004 31.6293 0.0000 41.4512
510 29 12.6347 12.8292 3.3184 27.4861 0.0000 36.4328
511 29 12.5437 11.1344 5.3221 24.9360 0.0000 34.7232
512 29 11.1276 12.6741 5.5728 26.7000 0.0000 41.8228
513 29 10.7204 10.6772 7.2692 28.6282 0.0000 35.0866
514 29 12.7883 12.7250 7.5118 25.1789 0.0000 42.4963
515 29 12.8659 10.6023 8.9561 24.3618 0.0000 35.3479
516 29 10.9683 12.5163 9.0274 29.6340 0.0000 37.4464
517 29 10.8727 10.7208 11.2197 26.7817 0.0000 36.0836
518 29 12.6797 12.8797 10.7474 26.3749 0.0000 34.2987
519 29 13.0322 10.9785 12.6586 26.1674 0.0000 40.2642
520 29 10.9049 12.8354 12.3853 23.8365 0.0000 41.7488
521 29 11.2073 10.5951 14.4716 23.8889 0.0000 41.3423
522 29 12.8389 12.7674 14.5337 23.4387 0.0000 36.3284
523 29 12.9188 11.0224 16.2844 22.2254 0.0000 38.4300
524 29 11.0362 12.5051 16.3202 31.2877 0.0000 42.6424
525 29 11.1327 10.7913 18.0119 30.0137 0.0000 36.1397
526 29 12.4317 12.2309 18.0415 29.9299 0.0000 35.0611
527 29 12.4608 11.0930 19.8839 29.3930 0.0000 32.5525
528 29 10.7470 12.9522 20.0574 27.0002 0.0000 33.8176
529 29 11.2889 13.8900 0.0025 24.0240 0.0000 33.7104
530 29 12.6889 16.0853 0.1466 21.7219 0.0000 32.9765
531 29 12.5364 14.2261 1.7354 30.5074 0.0000 40.0166
532 29 10.7347 16.2999 1.6861 30.3622 0.0000 32.2906
533 29 10.7104 14.3321 3.9535 22.5776 0.0000 38.1594
534 29 12.6455 16.5846 3.7661 27.4200 0.0000 40.3523
535 29 12.7622 14.7615 5.2903 21.9571 0.0000 41.8849
536 29 10.7593 16.4397 5.4884 22.7572 0.0000 32.7493
537 29 11.0460 14.4129 7.5428 21.7444 0.0000 33.9474
538 29 12.5391 15.8857 7.3468 25.4060 0.0000 34.2430
539 29 12.5842 14.1909 9.3837 24.2464 0.0000 40.6883
540 29 10.8740 16.3020 8.8687 25.4625 0.0000 32.0578
541 29 10.9712 14.1699 10.6829 27.8451 0.0000 33.0926
542 29 12.7176 15.9299 11.2472 27.2908 0.0000 33.7682
543 29 12.7292 14.5654 12.9284 24.3519 0.0000 37.6179
544 29 11.0767 16.2096 12.7746 22.1608 0.0000 41.5246
545 29 10.9868 14.2503 14.4122 25.9817 0.0000 32.2481
546 29 12.8480 15.8922 14.5889 27.3314 0.0000 33.0352
547 29 12.7258 14.3986 16.3945 25.0492 0.0000 41.6171
548 29 10.6692 16.3476 16.1789 22.3179 0.0000 34.2308
549 29 10.4925 14.1962 18.2161 29.9168 0.0000 36.7710
550 29 12.2862 16.7146 18.3182 30.3594 0.0000 39.8411
551 29 12.6602 14.2281 19.4797 30.2380 0.0000 39.5941
552 29 10.9028 16.2877 19.7544 26.5573 0.0000 40.1000
553 29 10.7757 18.1448 -0.0335 23.0068 0.0000 36.1660
554 29 12.8587 19.6853 0.1922 23.2756 0.0000 41.1999
555 29 12.8814 17.8364 2.1262 26.6345 0.0000 34.3649
556 29 10.6425 19.6531 1.8265 32.0124 0.0000 34.8062
557 29 11.0220 18.1402 3.8278 28.7161 0.0000 42.0490
558 29 12.5453 19.5242 3.6360 30.1046 0.0000 34.1152
559 29 12.4369 18.1453 5.6815 30.1635 0.0000 38.1606
560 29 10.8676 19.8043 5.2386 28.7034 0.0000 35.0954
561 29 10.8233 17.7196 7.3460 26.2685 0.0000 33.4073
562 29 13.0774 20.1290 7.2656 21.9262 0.0000 35.2905
563 29 12.8777 18.3895 8.9852 31.5208 0.0000 36.3480
564 29 10.9972 19.9572 9.1980 24.8330 0.0000 35.4355
565 29 10.5706 18.0335 10.8555 23.5845 0.0000 33.3479
566 29 12.6953 19.6642 10.8580 23.6268 0.0000 36.8048
567 29 12.4865 18.1446 12.5633 27.2718 0.0000 39.0449
568 29 11.2390 20.1511 12.5138 32.1621 0.0000 32.1587
569 29 10.8583 18.0229 14.6224 26.6445 0.0000 41.7094
570 29 12.4210 19.7269 14.5006 31.5450 0.0000 37.9162
571 29 12.6256 18.0641 16.0518 28.5509 0.0000 38.3000