ITEM: TIMESTEP
0
ITEM: NUMBER OF ATOMS
60
ITEM: BOX BOUNDS pp pp pp
0.0 25.000000
0.0 25.000000
0.0 25.000000
ITEM: ATOMS id type x y z ke
1 6 12.5157 11.6915 9.1041 0.1260
2 6 11.7737 8.9403 12.5432 0.0937
3 6 9.0389 12.5587 11.7427 0.0767
4 6 12.4548 12.0194 15.8251 0.4500
5 6 11.8343 16.0225 12.5695 0.0969
6 6 15.9435 12.5315 11.7471 0.0671
7 6 12.6371 13.3113 9.0582 0.1940
8 6 13.2278 9.0074 12.4652 0.0579
9 6 8.9902 12.7092 13.1531 0.2920
10 6 12.5385 13.2417 15.8484 0.1426
11 6 13.2053 16.0293 12.5619 0.0832
12 6 15.8644 12.4854 13.1429 0.1405
13 6 11.7473 9.8027 10.1149 0.1343
14 6 9.9816 10.3865 11.8399 0.2995
15 6 10.2112 11.7450 9.8080 0.1116
16 6 11.8408 10.0088 14.9095 0.1577
17 6 9.9981 14.7875 11.8051 0.0968
18 6 14.7317 11.7107 9.8868 0.1157
19 6 11.7845 15.0593 10.1232 0.0723
20 6 15.1029 10.1351 11.7749 0.0619
21 6 10.2958 11.8462 15.1225 0.1383
22 6 11.7944 14.9491 14.9613 0.2530
23 6 14.9029 14.7982 11.6101 0.3779
24 6 14.8458 11.6862 15.0971 0.1011
25 6 13.2194 9.8665 10.1387 0.0680
26 6 9.8594 10.3020 13.2637 0.1444
27 6 10.1071 13.1773 9.9394 0.0901
28 6 13.1887 9.9127 14.8167 0.0539
29 6 9.8151 14.9301 13.2051 0.1561
30 6 14.7546 13.2910 9.9772 0.1210
31 6 13.2308 14.9569 10.1935 0.1416
32 6 15.1125 10.1695 13.1447 0.0783
33 6 10.1927 13.1602 15.0267 0.0870
34 6 13.1214 14.9324 14.7676 0.2328
35 6 15.0489 14.8553 13.2200 0.0660
36 6 14.9030 13.2089 15.1576 0.1077
37 6 11.4190 11.0840 9.4657 0.0815
38 6 11.0774 9.4290 11.4227 0.0903
39 6 9.4572 11.3972 11.0152 0.0795
40 6 11.3543 11.0026 15.5302 0.0718
41 6 11.0160 15.4798 11.2524 0.1167
42 6 15.6107 11.3717 11.1327 0.1047
43 6 11.4696 13.8129 9.3691 0.2493
44 6 13.9212 9.6260 11.4185 0.2077
45 6 9.3839 11.4584 14.0069 0.1788
46 6 11.3679 13.8612 15.5023 0.0839
47 6 13.9967 15.5273 11.1974 0.1729
48 6 15.4928 11.4826 13.9800 0.1690
49 6 13.5640 11.2166 9.6098 0.3080
50 6 11.1907 9.3416 13.5069 0.3165
51 6 9.4221 13.6235 11.0915 0.0685
52 6 13.4015 11.1317 15.4594 0.4269
53 6 11.0763 15.4884 13.7448 0.0973
54 6 15.6860 13.6402 10.9655 0.2174
55 6 13.8043 13.9709 9.4658 0.1620
56 6 13.9856 9.3947 13.5701 0.1281
57 6 9.4179 13.6968 14.0211 0.1073
58 6 13.6453 14.0007 15.5338 0.0739
59 6 13.9617 15.5361 13.6880 0.0584
60 6 15.5255 13.6636 13.8548 0.0805
ITEM: TIMESTEP
100
ITEM: NUMBER OF ATOMS
60
ITEM: BOX BOUNDS pp pp pp
0.0 25.000000
0.0 25.000000
0.0 25.000000
ITEM: ATOMS id type x y z ke
1 6 12.7240 11.7991 8.8720 0.2330
2 6 11.8283 8.9711 12.2987 0.1630
3 6 8.8726 12.6012 11.8484 0.1426
4 6 12.4756 11.8663 16.0697 0.0900
5 6 11.7337 16.0681 12.4831 0.0777
6 6 16.0778 12.4452 11.6601 0.1211
7 6 12.5101 13.3442 8.9658 0.0993
8 6 13.2776 8.9412 12.5734 0.0896
9 6 9.0242 12.5671 13.1431 0.0747
10 6 12.4761 13.1864 16.1108 0.0985
11 6 13.2203 16.0962 12.4161 0.1031
12 6 15.9879 12.4451 13.2260 0.0581
13 6 11.7706 9.8377 10.0414 0.1123
14 6 9.9275 10.1877 11.8468 0.0609
15 6 10.1248 11.8027 9.8416 0.0702
16 6 11.6830 9.8469 14.8824 0.0951
17 6 9.9292 14.7680 11.7544 0.0595
18 6 14.8212 11.7863 9.8250 0.0674
19 6 11.7883 15.0940 10.2270 0.0551
20 6 15.3213 10.1462 11.8753 0.2061
21 6 10.1170 11.9360 15.0545 0.1220
22 6 11.6941 15.1668 14.8216 0.0842
23 6 14.9179 14.8778 11.7159 0.1458
24 6 14.7635 11.9822 15.1923 0.1812
25 6 13.1131 9.8489 10.0918 0.1058
26 6 9.8939 10.0772 13.0587 0.1400
27 6 10.2625 13.1712 9.8267 0.0880
28 6 13.0785 9.7280 14.7733 0.1838
29 6 9.9665 14.9162 13.3030 0.1014
30 6 14.8073 13.1955 9.9139 0.0514
31 6 13.2111 14.9724 10.1812 0.0856
32 6 14.9366 10.2416 13.2394 0.1202
33 6 10.0806 13.2932 15.1388 0.0961
34 6 13.2399 15.0877 14.8544 0.0547
35 6 15.0808 14.7908 13.3409 0.0909
36 6 14.7891 13.2779 15.1495 0.0699
37 6 11.2517 11.0299 9.4265 0.0773
38 6 10.9179 9.4562 11.3577 0.1068
39 6 9.5431 11.1883 11.0307 0.1266
40 6 11.3333 11.1569 15.5738 0.0741
41 6 11.0187 15.6700 11.2713 0.1141
42 6 15.6978 11.3262 11.1140 0.1228
43 6 11.4476 13.8101 9.5313 0.1266
44 6 13.9082 9.3028 11.4677 0.1579
45 6 9.3320 11.2051 13.9957 0.1508
46 6 11.3633 14.0212 15.6624 0.1119
47 6 14.2501 15.6379 11.1209 0.4500
48 6 15.5619 11.3335 13.7048 0.1817
49 6 13.5080 10.9404 9.4864 0.1484
50 6 10.8722 9.3783 13.6661 0.1645
51 6 9.2089 13.5671 11.2523 0.3214
52 6 13.5482 11.0698 15.4501 0.0984
53 6 11.0594 15.6890 13.7291 0.1222
54 6 15.6041 13.9746 11.2607 0.4046
55 6 13.6632 13.8801 9.3158 0.1131
56 6 13.8972 9.2691 13.7032 0.1546
57 6 9.4090 13.6071 14.0010 0.0765
58 6 13.6293 13.9868 15.4907 0.0643
59 6 13.9244 15.5977 13.6311 0.0622
60 6 15.5173 13.6116 14.0341 0.0821
ITEM: TIMESTEP
200
ITEM: NUMBER OF ATOMS
60
ITEM: BOX BOUNDS pp pp pp
0.0 25.000000
0.0 25.000000
0.0 25.000000
ITEM: ATOMS id type x y z ke
1 6 12.4181 11.7381 8.9290 0.1199
2 6 11.7593 8.8963 12.3933 0.1611
3 6 8.9953 12.5361 11.9014 0.1131
4 6 12.6754 11.8975 15.9369 0.2296
5 6 11.4908 15.9285 12.5821 0.4261
6 6 15.8800 12.4744 11.8196 0.0949
7 6 12.4904 13.1760 9.0367 0.0575
8 6 13.1766 8.9358 12.6413 0.1655
9 6 9.0009 12.3401 13.2094 0.1535
10 6 12.5485 13.1002 16.1617 0.2480
11 6 13.3435 16.2191 12.5319 0.3504
12 6 16.0189 12.5487 13.2442 0.0695
13 6 11.7474 9.9742 10.2100 0.0755
14 6 9.8826 10.1127 11.6870 0.1087
15 6 10.3007 11.6063 10.0223 0.2818
16 6 11.7726 9.8657 14.8987 0.0835
17 6 9.7709 14.9391 11.5961 0.3226
18 6 14.9044 11.7408 9.8298 0.1113
19 6 11.7036 15.2048 10.1638 0.1276
20 6 15.2044 9.9542 11.6777 0.3505
21 6 10.1545 11.8816 15.2018 0.1391
22 6 11.6287 15.0705 14.8447 0.1498
23 6 15.0990 14.7561 11.9030 0.1218
24 6 14.9070 11.6644 15.0710 0.1395
25 6 13.2809 9.7738 10.0051 0.2624
26 6 9.9718 10.2278 13.2836 0.0922
27 6 10.2595 13.0852 9.6481 0.4103
28 6 13.2317 9.9607 14.8116 0.0619
29 6 9.9157 14.9122 13.2298 0.0861
30 6 14.9818 13.3061 9.8273 0.2143
31 6 13.2062 15.1195 10.2242 0.0605
32 6 15.2265 10.0142 13.2701 0.2451
33 6 10.0063 13.3497 15.1117 0.2445
34 6 13.1565 15.1865 14.9880 0.2144
35 6 15.2091 14.8964 13.1592 0.1420
36 6 14.9561 13.1586 15.1969 0.1827
37 6 11.3726 11.0599 9.5044 0.0601
38 6 10.8824 9.4507 11.3343 0.1867
39 6 9.2666 11.3240 10.9817 0.2375
40 6 11.2240 10.9554 15.6155 0.1801
41 6 10.9247 15.4306 11.3469 0.1735
42 6 15.6082 11.5102 11.1531 0.2143
43 6 11.3360 13.9394 9.5152 0.0600
44 6 14.0200 9.5014 11.2116 0.1517
45 6 9.3970 11.1501 13.9422 0.2135
46 6 11.2053 13.9834 15.5274 0.1334
47 6 13.8416 15.7516 11.2127 0.3352
48 6 15.4964 11.2748 14.1262 0.2216
49 6 13.7591 11.1425 9.3296 0.1855
50 6 11.0078 9.3636 13.6126 0.1140
51 6 9.5160 13.8368 11.3259 0.4500
52 6 13.6533 11.1284 15.4815 0.0759
53 6 11.0122 15.4493 13.6719 0.0913
54 6 15.5383 13.4956 10.8798 0.2953
55 6 13.7205 13.7776 9.4435 0.1622
56 6 13.9316 9.4462 13.5461 0.1020
57 6 9.3719 13.6999 13.9413 0.0918
58 6 13.6735 13.9730 15.6148 0.0830
59 6 13.9983 15.5015 13.5782 0.0972
60 6 15.6613 13.5163 13.9131 0.1962
ITEM: TIMESTEP
300
ITEM: NUMBER OF ATOMS
60
ITEM: BOX BOUNDS pp pp pp
0.0 25.000000
0.0 25.000000
0.0 25.000000
ITEM: ATOMS id type x y z ke
1 6 12.4685 11.8343 8.9685 0.0736
2 6 11.9222 8.8610 12.5910 0.2445
3 6 9.0645 12.5830 11.8263 0.0877
4 6 12.5781 11.8416 16.2104 0.2816
5 6 11.7565 16.1446 12.6970 0.2950
6 6 15.9854 12.4551 11.8307 0.0655
7 6 12.5109 13.2371 8.8504 0.1599
8 6 13.2253 9.0435 12.5995 0.0877
9 6 9.1051 12.4704 13.2598 0.0844
10 6 12.5099 13.2684 16.1342 0.1497
11 6 13.2078 15.9930 12.4749 0.0535
12 6 16.1409 12.5966 13.1522 0.1960
13 6 11.6818 9.8583 10.0175 0.1948
14 6 9.8131 10.2031 11.7108 0.1038
15 6 10.0983 11.8121 9.7281 0.1961
16 6 11.8101 9.8144 14.8068 0.0850
17 6 9.9372 14.9207 11.7581 0.0936
18 6 14.9727 11.7344 9.9188 0.1459
19 6 11.7822 15.1657 9.9879 0.2064
20 6 15.0561 10.1294 11.7841 0.0646
21 6 10.0794 11.6473 15.1635 0.1742
22 6 11.9113 15.0986 14.7639 0.1198
23 6 15.2392 14.8421 11.8797 0.1645
24 6 15.0468 11.7999 15.0750 0.2415
25 6 13.2654 9.8815 10.1603 0.0631
26 6 9.8963 10.1352 13.2480 0.0621
27 6 10.0349 13.1799 10.0153 0.1746
28 6 13.2958 9.9367 14.9658 0.1549
29 6 9.6201 14.9065 13.2740 0.3914
30 6 14.9333 13.1912 9.8850 0.1024
31 6 13.2376 15.1451 10.0541 0.1212
32 6 15.1245 10.1733 13.1948 0.0559
33 6 10.2256 13.2762 15.1934 0.1075
34 6 13.1283 15.2508 15.0961 0.4500
35 6 15.2699 14.8234 13.2485 0.1690
36 6 14.9125 13.0393 15.3198 0.3845
37 6 11.2931 10.9215 9.2918 0.2449
38 6 11.1857 9.4862 11.1989 0.1753
39 6 9.4405 11.3258 11.2308 0.1499
40 6 11.4167 11.0086 15.4671 0.0996
41 6 11.0779 15.5381 11.2909 0.0595
42 6 15.5372 11.1795 10.9809 0.1716
43 6 11.1292 14.1064 9.3440 0.3755
44 6 14.1001 9.3010 11.2586 0.2745
45 6 9.4268 11.3421 13.9082 0.0577
46 6 11.1914 13.9854 15.5546 0.1427
47 6 13.8554 15.6172 11.3633 0.0983
48 6 15.4450 11.2840 13.9235 0.0909
49 6 13.7226 10.9457 9.4394 0.1208
50 6 10.9652 9.3521 13.7484 0.1635
51 6 9.3521 13.8161 10.9775 0.2154
52 6 13.5559 11.1079 15.6240 0.1236
53 6 10.8177 15.6404 13.6453 0.3173
54 6 15.6996 13.7304 11.2746 0.3229
55 6 13.7850 13.9733 9.2692 0.2534
56 6 14.0777 9.4855 13.6335 0.1300
57 6 9.2980 13.7199 13.9180 0.1660
58 6 13.5774 13.9210 15.6923 0.1650
59 6 13.8261 15.5887 13.8439 0.2257
60 6 15.5037 13.6492 14.0302 0.0882
ITEM: TIMESTEP
400
ITEM: NUMBER OF ATOMS
60
ITEM: BOX BOUNDS pp pp pp
0.0 25.000000
0.0 25.000000
0.0 25.000000
ITEM: ATOMS id type x y z ke
1 6 12.4191 11.7509 8.8720 0.1245
2 6 11.7714 8.9493 12.4327 0.0748
3 6 8.8605 12.5573 11.6702 0.1542
4 6 12.5408 11.7871 16.2309 0.2119
5 6 11.8443 15.9979 12.4749 0.0616
6 6 16.0961 12.6242 11.7153 0.1339
7 6 12.4259 13.2275 8.9491 0.0771
8 6 13.3498 8.9715 12.5748 0.1138
9 6 8.8038 12.5277 13.2693 0.1764
10 6 12.4998 13.3063 16.1545 0.1469
11 6 13.2603 15.9969 12.5579 0.0639
12 6 16.1387 12.7026 13.2554 0.2183
13 6 11.7066 9.7596 10.2765 0.1406
14 6 9.8652 10.2451 11.6047 0.1427
15 6 10.0239 11.7218 9.8838 0.1220
16 6 11.8183 9.8656 14.8730 0.0648
17 6 9.9654 14.8728 11.8674 0.0824
18 6 14.8786 11.9180 9.7682 0.1513
19 6 11.7564 14.9894 10.2586 0.0917
20 6 15.1276 10.1127 11.6708 0.0962
21 6 10.1019 11.6577 15.1267 0.1076
22 6 11.7072 15.0278 14.8369 0.0751
23 6 14.9816 14.7637 11.7968 0.0873
24 6 14.7856 11.8122 15.0937 0.0546
25 6 13.1595 9.8624 10.0994 0.0798
26 6 9.7738 10.1516 13.0690 0.1497
27 6 10.1189 13.2486 9.8885 0.0633
28 6 13.2848 9.8685 14.7932 0.0669
29 6 9.9460 14.9449 13.1567 0.1016
30 6 14.8975 13.2834 9.9111 0.0765
31 6 13.2271 15.2968 10.5302 0.4500
32 6 15.2699 10.2177 13.1937 0.1322
33 6 10.2524 13.2117 15.1146 0.0635
34 6 13.3376 15.2667 14.9370 0.1958
35 6 14.9903 14.8916 13.2340 0.0892
36 6 14.7063 13.0730 15.0859 0.1309
37 6 11.2398 11.1384 9.3900 0.1014
38 6 11.0653 9.4491 11.3459 0.0507
39 6 9.5023 11.3153 10.9273 0.1030
40 6 11.4466 11.0058 15.5611 0.0883
41 6 10.9854 15.5946 11.2679 0.0885
42 6 15.5303 11.2091 11.1615 0.1143
43 6 11.1581 13.9947 9.3783 0.1600
44 6 13.9936 9.2154 11.2600 0.2286
45 6 9.3070 11.4293 13.9769 0.1355
46 6 11.4281 14.0850 15.6100 0.1395
47 6 13.8891 15.5404 11.4529 0.0854
48 6 15.5762 11.3264 13.9059 0.0566
49 6 13.5734 10.9433 9.2965 0.1757
50 6 11.0342 9.5236 13.6656 0.0610
51 6 9.3251 13.7671 10.9734 0.1486
52 6 13.7363 11.1893 15.4089 0.1395
53 6 11.0059 15.3776 13.7075 0.1251
54 6 15.5412 13.8386 10.8882 0.2077
55 6 13.9280 14.0137 9.3621 0.2695
56 6 13.8931 9.4220 13.7196 0.0675
57 6 9.3284 13.7694 13.9815 0.1318
58 6 13.8759 13.8807 15.6887 0.2301
59 6 13.8249 15.4458 13.4902 0.1673
60 6 15.6772 13.6944 13.9290 0.1031
ITEM: TIMESTEP
500
ITEM: NUMBER OF ATOMS
60
ITEM: BOX BOUNDS pp pp pp
0.0 25.000000
0.0 25.000000
0.0 25.000000
ITEM: ATOMS id type x y z ke
1 6 12.5274 11.9041 8.9808 0.1335
2 6 11.7771 9.0692 12.6865 0.2311
3 6 9.0755 12.4129 11.6803 0.1531
4 6 12.4434 11.7889 16.0515 0.0931
5 6 11.7552 16.0850 12.3779 0.1842
6 6 15.8247 12.4698 11.7963 0.1690
7 6 12.5542 13.2151 9.0179 0.0645
8 6 13.2375 8.9331 12.6224 0.1653
9 6 8.9165 12.3289 13.1616 0.2639
10 6 12.4895 13.2129 16.1245 0.1572
11 6 13.1238 15.8816 12.3663 0.2242
12 6 15.8585 12.4711 13.2952 0.1535
13 6 11.5910 9.8488 10.1774 0.2496
14 6 9.7180 10.0606 11.8746 0.3404
15 6 10.3157 11.7551 9.8570 0.1545
16 6 11.7866 10.0320 14.7840 0.1306
17 6 9.8658 14.7312 11.8632 0.1268
18 6 14.7713 11.7493 9.7321 0.2188
19 6 11.6764 15.2111 10.2352 0.1903
20 6 15.0734 10.1632 11.6372 0.1585
21 6 10.2114 11.6692 15.2759 0.2850
22 6 11.8271 14.9471 14.7944 0.1642
23 6 15.1288 14.9382 11.7775 0.1278
24 6 14.8944 11.7563 15.2694 0.2372
25 6 13.1973 10.0279 10.0572 0.1981
26 6 9.8394 10.1810 13.2720 0.0885
27 6 10.2595 13.2990 9.7689 0.2083
28 6 13.0641 10.0052 14.8200 0.2094
29 6 9.8443 15.0539 13.2771 0.3611
30 6 14.9967 13.2035 9.7442 0.3394
31 6 13.1646 15.1973 10.0834 0.1655
32 6 14.8983 10.3915 13.2361 0.4500
33 6 10.2063 13.3031 15.1902 0.1375
34 6 13.1318 15.0392 14.8151 0.0986
35 6 15.0988 14.7829 13.0897 0.1348
36 6 14.8670 13.1921 15.0106 0.0967
37 6 11.3023 11.0130 9.4774 0.0725
38 6 11.0850 9.4759 11.4426 0.1026
39 6 9.4980 11.3642 11.0396 0.0615
40 6 11.2823 11.1787 15.4256 0.1855
41 6 11.0581 15.6565 11.3570 0.1248
42 6 15.6024 11.4432 11.0541 0.1248
43 6 11.3840 13.8393 9.3943 0.1268
44 6 13.8942 9.4000 11.2119 0.1600
45 6 9.2916 11.2227 13.8559 0.2961
46 6 11.3120 13.9764 15.3198 0.2890
47 6 13.9350 15.5527 11.2822 0.0686
48 6 15.7494 11.3513 14.0189 0.3139
49 6 13.5132 10.9288 9.4774 0.2491
50 6 11.0762 9.4903 13.5904 0.0764
51 6 9.5184 13.7890 11.0186 0.1581
52 6 13.7705 11.0097 15.4948 0.1349
53 6 10.9140 15.5621 13.6404 0.1708
54 6 15.7221 13.6647 11.0817 0.2241
55 6 13.5870 13.8837 9.5003 0.0930
56 6 14.0843 9.6174 13.5384 0.3468
57 6 9.3607 13.7082 13.9079 0.1189
58 6 13.6708 13.8113 15.6589 0.1988
59 6 14.1261 15.4297 13.6885 0.2914
60 6 15.5820 13.8511 13.7634 0.3823
ITEM: TIMESTEP
600
ITEM: NUMBER OF ATOMS
60
ITEM: BOX BOUNDS pp pp pp
0.0 25.000000
0.0 25.000000
0.0 25.000000
ITEM: ATOMS id type x y z ke
1 6 12.4300 11.8056 9.2367 0.1973
2 6 11.8245 9.0000 12.6094 0.0909
3 6 9.0488 12.2959 11.6810 0.2026
4 6 12.5486 11.7651 16.0379 0.0685
5 6 11.7491 16.0116 12.3624 0.1116
6 6 15.9112 12.4178 11.7789 0.0820
7 6 12.5415 13.1680 8.9808 0.0669
8 6 13.2787 8.9961 12.6189 0.1041
9 6 9.0224 12.6523 13.1540 0.1282
10 6 12.7720 13.0430 16.0394 0.3614
11 6 13.1466 15.9389 12.5186 0.0692
12 6 15.9823 12.5140 13.0879 0.0982
13 6 11.8321 10.0042 10.0114 0.1672
14 6 9.9104 10.1052 11.6986 0.0880
15 6 10.2039 11.9421 10.0472 0.1794
16 6 11.8647 9.9497 14.8104 0.0740
17 6 9.9205 14.7569 11.7150 0.0748
18 6 14.9022 11.7378 9.9259 0.0774
19 6 12.0192 14.9776 10.2498 0.2608
20 6 15.0888 9.8881 11.8277 0.3050
21 6 10.2295 11.7257 15.1119 0.0674
22 6 11.7485 15.1333 14.7091 0.0929
23 6 15.2471 14.8107 11.8847 0.1494
24 6 14.9058 11.7681 15.0349 0.0822
25 6 13.2527 9.7685 10.1249 0.1198
26 6 9.7802 10.0995 13.1426 0.1328
27 6 10.2816 13.2086 9.9366 0.0811
28 6 13.1458 10.0322 14.8426 0.1103
29 6 10.1275 15.0596 13.0367 0.4500
30 6 14.8716 13.2534 9.9730 0.0743
31 6 13.3461 14.9093 9.9897 0.3013
32 6 15.1083 10.1237 13.2167 0.0606
33 6 10.1713 13.4264 15.1223 0.1805
34 6 13.3240 15.0749 14.8939 0.1009
35 6 15.1461 14.7899 13.2553 0.0652
36 6 14.7552 13.1467 14.9132 0.1672
37 6 11.3761 11.0551 9.4969 0.0568
38 6 11.1005 9.4084 11.3303 0.0630
39 6 9.4440 11.1351 10.9891 0.1915
40 6 11.3707 10.8985 15.5326 0.1349
41 6 10.9254 15.4277 11.1932 0.2040
42 6 15.6085 11.3879 10.9640 0.1031
43 6 11.2405 13.9767 9.5806 0.1229
44 6 13.8693 9.4593 11.4828 0.1197
45 6 9.5774 11.3561 14.0519 0.1277
46 6 11.3668 13.9309 15.6217 0.0740
47 6 14.0788 15.5480 11.4128 0.1272
48 6 15.4418 11.2276 13.8229 0.1465
49 6 13.7262 11.0479 9.5704 0.0958
50 6 11.0502 9.4898 13.5598 0.0809
51 6 9.2741 13.5139 11.1497 0.2363
52 6 13.6130 11.1255 15.7275 0.1736
53 6 11.0197 15.3741 13.5097 0.1949
54 6 15.5002 13.7059 11.1634 0.0863
55 6 13.7153 13.8977 9.4037 0.0738
56 6 13.8521 9.6994 13.8871 0.3765
57 6 9.4097 13.7310 13.9540 0.0753
58 6 13.6137 13.9113 15.5040 0.0599
59 6 13.8387 15.5051 13.6025 0.0871
60 6 15.5903 13.7382 13.9798 0.0836
ITEM: TIMESTEP
700
ITEM: NUMBER OF ATOMS
60
ITEM: BOX BOUNDS pp pp pp
0.0 25.000000
0.0 25.000000
0.0 25.000000
ITEM: ATOMS id type x y z ke
1 6 12.4169 11.7330 9.0875 0.1076
2 6 11.7732 9.0195 12.4795 0.0523
3 6 9.1102 12.3715 11.8035 0.1535
4 6 12.5201 11.7594 15.8764 0.0970
5 6 11.7717 15.9930 12.3036 0.2147
6 6 15.6917 12.5174 11.8497 0.4135
7 6 12.5448 13.3614 8.9675 0.1605
8 6 13.2217 9.0820 12.4909 0.0652
9 6 9.1291 12.5251 13.1302 0.1315
10 6 12.4420 13.2963 15.9695 0.0915
11 6 13.2023 15.9085 12.4839 0.0717
12 6 16.0046 12.3785 13.0367 0.2519
13 6 12.0057 10.0073 10.1924 0.2999
14 6 9.6859 10.2840 11.6994 0.3333
15 6 10.1813 11.6969 10.0488 0.1651
16 6 11.7191 10.0034 14.7693 0.1157
17 6 9.9379 14.8418 11.7251 0.0706
18 6 14.7298 11.8050 9.8224 0.1160
19 6 11.8671 14.9927 10.0715 0.1723
20 6 15.1567 10.1292 11.7549 0.0832
21 6 10.1509 11.7146 14.8897 0.2465
22 6 11.5722 15.2282 14.8165 0.3178
23 6 15.1360 14.7704 11.8502 0.0866
24 6 14.6775 11.7188 15.0930 0.1513
25 6 13.2137 9.8902 10.1354 0.0606
26 6 9.9313 10.2164 13.0617 0.1583
27 6 10.2085 13.1868 9.8133 0.0948
28 6 13.1780 9.9898 14.7122 0.1315
29 6 9.9729 14.6285 13.2043 0.2199
30 6 14.7434 13.1595 9.9903 0.1155
31 6 13.1828 15.0571 10.0116 0.1824
32 6 14.9523 10.2505 13.0592 0.2560
33 6 10.2020 13.2603 14.9727 0.1196
34 6 13.2245 15.1146 14.7519 0.0709
35 6 15.0176 14.8375 13.2565 0.0815
36 6 14.6970 13.2019 15.1524 0.1284
37 6 11.4978 11.1326 9.5410 0.1957
38 6 10.9674 9.5158 11.4173 0.1275
39 6 9.5697 11.2750 11.0430 0.1166
40 6 11.2549 11.1155 15.4361 0.1318
41 6 11.0455 15.5573 11.2978 0.0621
42 6 15.4293 11.3040 10.9843 0.1316
43 6 11.4001 13.9977 9.4365 0.0863
44 6 13.9775 9.3907 11.6360 0.4500
45 6 9.5509 11.3522 13.9200 0.0819
46 6 11.3645 14.0746 15.6840 0.2322
47 6 14.0303 15.4529 11.4534 0.1717
48 6 15.6461 11.4481 14.0197 0.1834
49 6 13.5655 11.0608 9.4015 0.1046
50 6 10.9963 9.5586 13.6903 0.1120
51 6 9.5770 13.6418 11.0429 0.1061
52 6 13.7184 11.1610 15.4630 0.1234
53 6 11.1430 15.4764 13.6250 0.0932
54 6 15.4530 13.6483 11.0070 0.0938
55 6 13.7272 13.8040 9.4795 0.1403
56 6 13.9189 9.4730 13.5875 0.0726
57 6 9.4761 13.5849 14.0180 0.1045
58 6 13.6726 13.8262 15.4856 0.1086
59 6 13.9094 15.4483 13.7923 0.1586
60 6 15.6273 13.5755 13.8743 0.1304
ITEM: TIMESTEP
800
ITEM: NUMBER OF ATOMS
60
ITEM: BOX BOUNDS pp pp pp
0.0 25.000000
0.0 25.000000
0.0 25.000000
ITEM: ATOMS id type x y z ke
1 6 12.3838 11.7998 8.9359 0.1236
2 6 11.6632 9.1361 12.4251 0.1635
3 6 9.2091 12.5284 11.7729 0.1727
4 6 12.5640 11.8928 15.8037 0.2088
5 6 11.8244 15.9630 12.6120 0.0997
6 6 16.0003 12.7386 11.8190 0.2526
7 6 12.4382 13.1139 9.0158 0.0995
8 6 13.1276 9.0282 12.4846 0.0781
9 6 9.0122 12.4808 13.2230 0.0518
10 6 12.3785 13.3465 15.8196 0.2448
11 6 13.3712 15.8799 12.4555 0.1722
12 6 15.6866 12.3699 13.2632 0.4069
13 6 11.6397 10.0027 10.2957 0.1968
14 6 10.0079 10.1371 11.7662 0.0921
15 6 10.2431 11.7079 9.9440 0.0870
16 6 11.9506 9.8711 14.7621 0.1617
17 6 10.0253 14.8218 11.6672 0.1440
18 6 14.5777 11.8696 10.0327 0.3280
19 6 11.7120 14.9366 10.1914 0.1509
20 6 15.1919 10.1724 11.8164 0.0887
21 6 10.2780 11.7597 15.0556 0.0883
22 6 11.7755 15.1363 14.9934 0.1633
23 6 14.8201 14.7297 11.8972 0.3755
24 6 14.7723 11.7671 15.0527 0.0633
25 6 13.2304 10.0949 10.1781 0.1707
26 6 10.0237 10.1010 13.3518 0.1819
27 6 10.1837 13.1935 9.9429 0.0559
28 6 13.1970 9.9943 14.9502 0.1370
29 6 9.9203 14.7898 13.2779 0.0663
30 6 14.5736 13.2447 9.9732 0.2733
31 6 13.1361 15.0285 10.1575 0.0880
32 6 15.0404 10.3395 13.0473 0.2431
33 6 10.2032 13.3977 15.2156 0.2182
34 6 13.3415 15.0930 14.7036 0.1492
35 6 15.0384 14.7718 13.0208 0.1990
36 6 14.9260 13.3981 15.1382 0.2117
37 6 11.4117 11.0347 9.5208 0.0814
38 6 11.1279 9.5259 11.5133 0.1775
39 6 9.5108 11.3430 11.0852 0.0581
40 6 11.3908 11.1193 15.3737 0.1569
41 6 11.0257 15.3469 11.4235 0.2006
42 6 15.5476 11.2518 11.0259 0.0840
43 6 11.3424 13.8708 9.5438 0.0842
44 6 13.8439 9.4828 11.3700 0.0811
45 6 9.4511 11.4471 14.0137 0.1123
46 6 11.3938 13.8559 15.3644 0.1795
47 6 13.9059 15.4891 11.3025 0.0646
48 6 15.3551 11.4404 13.8290 0.2320
49 6 13.6858 11.0731 9.6893 0.2250
50 6 10.9730 9.7002 13.6257 0.2743
51 6 9.5465 13.7351 11.1521 0.1173
52 6 13.5259 11.1104 15.2920 0.3201
53 6 11.0628 15.4487 13.7490 0.1033
54 6 15.3445 13.8007 11.0467 0.2450
55 6 13.6064 13.8386 9.4858 0.0914
56 6 13.9619 9.6104 13.6493 0.1255
57 6 9.4882 13.6178 13.8674 0.0722
58 6 13.6691 13.9523 15.6241 0.0795
59 6 13.7738 15.4983 13.6946 0.1459
60 6 15.2971 13.4769 14.0955 0.4500
ITEM: TIMESTEP
900
ITEM: NUMBER OF ATOMS
60
ITEM: BOX BOUNDS pp pp pp
0.0 25.000000
0.0 25.000000
0.0 25.000000
ITEM: ATOMS id type x y z ke
1 6 12.3549 11.7124 8.9764 0.1622
2 6 11.7285 8.9390 12.4487 0.1005
3 6 9.0450 12.3994 11.6844 0.1312
4 6 12.4122 11.7571 15.8201 0.1809
5 6 11.7064 15.8991 12.4759 0.1001
6 6 15.8228 12.4440 11.7053 0.1810
7 6 12.4699 13.2403 9.0863 0.0718
8 6 13.4700 9.1578 12.4755 0.3795
9 6 9.3164 12.6145 13.2574 0.4500
10 6 12.4800 13.1419 16.0475 0.0932
11 6 13.2798 15.8960 12.3871 0.1425
12 6 15.9900 12.5077 13.1258 0.0834
13 6 11.7078 10.0403 10.1778 0.1419
14 6 9.8712 10.2571 12.0227 0.3042
15 6 10.2405 11.8108 10.0377 0.1327
16 6 11.6890 9.8590 14.8306 0.0959
17 6 10.0815 14.8516 11.8208 0.1787
18 6 14.8529 11.7671 9.8278 0.0817
19 6 11.8485 15.0653 10.3175 0.1421
20 6 15.0452 10.2547 11.8067 0.0816
21 6 10.2805 11.7718 15.0411 0.0991
22 6 11.7868 15.0608 14.7458 0.0744
23 6 14.9796 14.8142 11.6619 0.1585
24 6 14.7021 11.8310 15.0731 0.1135
25 6 13.2835 10.0495 10.3213 0.2237
26 6 9.9591 10.0035 13.1894 0.1894
27 6 10.0849 13.0678 9.9039 0.1748
28 6 13.1255 10.0833 14.8184 0.2039
29 6 10.1087 14.6961 13.0482 0.3799
30 6 14.6962 13.2542 9.8596 0.1239
31 6 13.1965 15.0392 10.1861 0.0625
32 6 15.0133 10.1549 13.1889 0.0802
33 6 10.2030 13.1478 15.1428 0.0807
34 6 13.0636 15.1472 14.6865 0.2232
35 6 14.9858 14.6892 13.1561 0.1745
36 6 14.8401 13.3785 15.1611 0.1754
37 6 11.2298 10.9791 9.4229 0.1373
38 6 11.0487 9.5140 11.2767 0.0771
39 6 9.6021 11.4352 11.1677 0.1987
40 6 11.4132 11.2060 15.5325 0.1469
41 6 11.0472 15.4212 11.3470 0.1024
42 6 15.4460 11.3472 11.0838 0.0821
43 6 11.4479 13.7308 9.5661 0.2967
44 6 13.7363 9.5590 11.3105 0.2409
45 6 9.5710 11.3231 13.9974 0.1118
46 6 11.3865 13.8744 15.4305 0.1143
47 6 13.9819 15.4404 11.2778 0.1104
48 6 15.4689 11.5212 13.9148 0.1969
49 6 13.8058 11.1021 9.7350 0.4276
50 6 11.2289 9.5565 13.5329 0.2490
51 6 9.5854 13.6835 11.1390 0.1295
52 6 13.7178 10.9704 15.3830 0.1917
53 6 11.2553 15.4647 13.5714 0.2396
54 6 15.4323 13.5670 11.0171 0.1348
55 6 13.6756 13.9697 9.5307 0.0733
56 6 14.0284 9.6034 13.6487 0.1620
57 6 9.5361 13.5978 13.8609 0.1049
58 6 13.6526 14.0377 15.5014 0.0982
59 6 14.1260 15.3491 13.5969 0.3495
60 6 15.5548 13.4806 13.7626 0.2924
ITEM: TIMESTEP
1000
ITEM: NUMBER OF ATOMS
60
ITEM: BOX BOUNDS pp pp pp
0.0 25.000000
0.0 25.000000
0.0 25.000000
ITEM: ATOMS id type x y z ke
1 6 12.3556 11.7785 9.1721 0.2052
2 6 11.6946 9.2504 12.5264 0.2674
3 6 9.2633 12.3378 11.6983 0.3789
4 6 12.3767 11.7869 15.9259 0.1142
5 6 11.6290 15.7689 12.6473 0.3702
6 6 16.0238 12.4195 11.6938 0.1103
7 6 12.6815 12.9627 9.1083 0.4264
8 6 13.1171 9.0667 12.4904 0.0926
9 6 9.1246 12.5179 13.0555 0.1814
10 6 12.5525 13.1541 15.6974 0.3553
11 6 13.2062 15.9031 12.5101 0.0704
12 6 16.0161 12.4810 13.3321 0.1051
13 6 11.7819 9.7980 10.2428 0.1072
14 6 9.9765 10.2726 11.7359 0.1044
15 6 10.4248 11.8015 10.1361 0.4500
16 6 11.6872 10.0054 14.9065 0.1456
17 6 9.8521 14.6923 11.8973 0.1647
18 6 14.6884 11.7948 9.9057 0.1109
19 6 11.9024 14.9871 10.2544 0.1589
20 6 15.0311 10.3726 11.7152 0.2109
21 6 10.2269 11.6811 15.0221 0.1125
22 6 11.7901 15.0825 14.7697 0.0588
23 6 15.0499 14.9365 11.8078 0.1090
24 6 14.9514 11.8516 14.9943 0.1648
25 6 13.1606 10.0041 10.1688 0.0948
26 6 9.9242 10.2619 13.2267 0.0743
27 6 10.2681 13.2143 9.9450 0.0815
28 6 13.1294 10.0343 14.8249 0.1344
29 6 10.0401 14.8486 13.2844 0.1325
30 6 14.8151 13.2369 9.7373 0.1570
31 6 13.1773 15.1678 10.2231 0.0825
32 6 14.9398 10.3681 13.2588 0.2642
33 6 10.2294 13.1726 15.1486 0.0767
34 6 13.2316 15.0382 14.8154 0.0611
35 6 14.9417 14.8600 13.1647 0.1469
36 6 14.9328 13.3006 15.0973 0.1231
37 6 11.5104 11.2035 9.5225 0.2317
38 6 11.1462 9.3984 11.3403 0.0887
39 6 9.5067 11.3393 11.0383 0.0591
40 6 11.3862 11.0667 15.4802 0.0679
41 6 11.1328 15.4420 11.4835 0.1692
42 6 15.5341 11.4591 11.1554 0.1281
43 6 11.4145 13.9263 9.5967 0.1315
44 6 13.8858 9.4947 11.2568 0.0865
45 6 9.5235 11.4558 13.8628 0.1271
46 6 11.3245 14.0633 15.5025 0.1162
47 6 13.8281 15.5140 11.4559 0.1384
48 6 15.5252 11.4236 13.9757 0.0815
49 6 13.5763 11.0275 9.4788 0.0810
50 6 11.0957 9.5209 13.5458 0.1100
51 6 9.5685 13.5667 11.2047 0.1865
52 6 13.6607 11.1103 15.6253 0.0865
53 6 11.1731 15.5295 13.6373 0.0920
54 6 15.5215 13.6544 11.1966 0.1108
55 6 13.6113 13.8963 9.4972 0.0665
56 6 13.9333 9.5640 13.5883 0.1028
57 6 9.5414 13.5011 13.9737 0.1665
58 6 13.6355 13.9514 15.5934 0.0659
59 6 14.1410 15.5184 13.5096 0.2877
60 6 15.3846 13.6363 14.0351 0.1704
ITEM: TIMESTEP
1100
ITEM: NUMBER OF ATOMS
60
ITEM: BOX BOUNDS pp pp pp
0.0 25.000000
0.0 25.000000
0.0 25.000000
ITEM: ATOMS id type x y z ke
1 6 12.4717 11.8120 8.9564 0.0833
2 6 11.7474 9.0767 12.5675 0.0982
3 6 9.0190 12.3814 11.6720 0.1963
4 6 12.4646 11.6538 15.8636 0.2206
5 6 11.8994 15.9378 12.5421 0.1419
6 6 15.9740 12.4626 11.7517 0.0634
7 6 12.4392 13.1350 8.9954 0.1110
8 6 13.2384 8.9063 12.5896 0.1719
9 6 9.0420 12.6201 13.1821 0.1379
10 6 12.4389 13.2827 15.8720 0.1556
11 6 13.2284 16.0372 12.4387 0.0915
12 6 15.8845 12.5492 13.1406 0.1420
13 6 11.8156 9.9464 10.1287 0.0792
14 6 9.9090 10.2169 11.7488 0.0634
15 6 10.2728 11.8936 10.0236 0.2349
16 6 11.8050 9.9393 14.8320 0.0588
17 6 9.7985 14.7472 11.9652 0.3256
18 6 14.8509 11.9460 10.0440 0.3024
19 6 11.9131 15.1883 10.3015 0.2724
20 6 15.0787 10.0974 11.8671 0.1286
21 6 10.2998 11.6636 15.0357 0.2230
22 6 11.7733 14.9785 14.6779 0.2292
23 6 15.0954 14.6888 11.6838 0.1970
24 6 14.6340 11.7247 15.0530 0.2638
25 6 13.3223 9.9402 10.1275 0.1338
26 6 9.9160 10.3049 13.2913 0.1645
27 6 10.2330 13.3381 9.8797 0.1506
28 6 13.1461 9.9548 14.7458 0.1177
29 6 10.0283 14.6486 13.2014 0.2883
30 6 14.7904 13.0474 9.9102 0.2114
31 6 13.1967 15.0910 10.1831 0.0521
32 6 14.9854 10.2586 13.2759 0.1639
33 6 10.0569 13.3967 15.1360 0.3263
34 6 13.4240 15.0690 14.7025 0.3639
35 6 15.1530 14.7471 13.1338 0.1359
36 6 14.7581 13.2185 15.0907 0.0698
37 6 11.3087 11.1045 9.4672 0.0633
38 6 11.2641 9.5877 11.4791 0.4500
39 6 9.3762 11.4270 10.9790 0.1779
40 6 11.4492 11.1143 15.4476 0.1680
41 6 11.0980 15.5646 11.2239 0.1357
42 6 15.5953 11.3927 11.1731 0.1468
43 6 11.4320 14.0571 9.5196 0.1969
44 6 13.8655 9.4849 11.3469 0.0770
45 6 9.5984 11.2978 14.0133 0.1932
46 6 11.4023 13.9956 15.6414 0.1557
47 6 14.0159 15.3772 11.3459 0.2242
48 6 15.5521 11.2632 14.0435 0.1529
49 6 13.6248 11.0623 9.4845 0.0585
50 6 10.9198 9.4911 13.6488 0.1742
51 6 9.5027 13.4991 11.0655 0.1983
52 6 13.6855 11.0821 15.5897 0.0720
53 6 11.0565 15.4317 13.6493 0.1091
54 6 15.5401 13.6372 11.1625 0.1026
55 6 13.6214 13.9513 9.4214 0.0705
56 6 13.8518 9.5123 13.6585 0.0978
57 6 9.4164 13.5859 13.9065 0.0966
58 6 13.8103 13.7864 15.5484 0.2949
59 6 13.8546 15.6064 13.6324 0.1161
60 6 15.6068 13.6550 13.9238 0.0794
ITEM: TIMESTEP
1200
ITEM: NUMBER OF ATOMS
60
ITEM: BOX BOUNDS pp pp pp
0.0 25.000000
0.0 25.000000
0.0 25.000000
ITEM: ATOMS id type x y z ke
1 6 12.4585 11.7661 9.2000 0.2364
2 6 11.8107 9.0623 12.4627 0.0704
3 6 8.9069 12.4290 11.8151 0.1591
4 6 12.5392 11.6996 15.8437 0.1974
5 6 11.7281 16.0468 12.5196 0.0967
6 6 15.9598 12.4179 11.7703 0.0903
7 6 12.4893 13.2331 9.0393 0.0537
8 6 13.1945 8.9462 12.6101 0.1533
9 6 8.9506 12.5450 13.1868 0.0955
10 6 12.5027 13.1864 15.9990 0.0578
11 6 13.2843 15.9551 12.6674 0.2351
12 6 15.9254 12.5866 13.2427 0.1107
13 6 11.7162 9.9235 10.1963 0.0778
14 6 9.7347 10.2157 11.8186 0.2318
15 6 10.1075 11.8214 9.9019 0.0892
16 6 11.8720 9.8786 14.8696 0.1134
17 6 10.1033 14.8442 11.7712 0.2671
18 6 14.7003 11.6729 10.0163 0.2612
19 6 11.8059 15.1159 10.1430 0.0646
20 6 14.9694 10.1328 11.7862 0.1471
21 6 10.3211 11.6045 14.9826 0.4041
22 6 11.7519 15.1515 14.8770 0.0952
23 6 15.1280 14.7929 11.6174 0.2156
24 6 14.8904 11.6787 15.1627 0.1693
25 6 13.2586 9.9785 10.1652 0.0890
26 6 9.7486 10.1951 13.1985 0.1954
27 6 10.1888 13.2982 10.1252 0.3505
28 6 13.1576 9.9563 14.7793 0.0904
29 6 9.8768 14.9366 13.1959 0.1366
30 6 14.9386 13.2078 9.7903 0.2097
31 6 13.1813 15.0931 10.1277 0.0733
32 6 15.0990 10.0158 13.1374 0.2395
33 6 10.0685 13.3889 15.0458 0.3004
34 6 13.2299 15.1205 14.8300 0.0565
35 6 15.1653 14.8117 13.1729 0.0911
36 6 14.8660 13.2304 15.1718 0.0999
37 6 11.3961 11.1130 9.4366 0.0834
38 6 11.1199 9.3997 11.3638 0.0927
39 6 9.4666 11.2969 11.1803 0.1321
40 6 11.3179 10.9572 15.5959 0.1421
41 6 10.9585 15.4959 11.3570 0.1259
42 6 15.4436 11.2406 11.1958 0.2444
43 6 11.3995 13.9659 9.5268 0.0962
44 6 13.9682 9.5346 11.4054 0.1067
45 6 9.5627 11.3994 13.8730 0.1415
46 6 11.4821 13.9848 15.6295 0.2273
47 6 13.7979 15.5698 11.3021 0.1670
48 6 15.5380 11.3389 13.7992 0.1496
49 6 13.5965 11.0553 9.5329 0.0978
50 6 11.0307 9.5426 13.7740 0.1645
51 6 9.5922 13.6772 11.0912 0.1444
52 6 13.6741 11.1483 15.4840 0.1020
53 6 11.1559 15.6076 13.6002 0.1431
54 6 15.4963 13.8184 11.0876 0.2023
55 6 13.5836 13.8740 9.4647 0.1010
56 6 13.6986 9.4341 13.7848 0.4500
57 6 9.4803 13.6750 13.9588 0.0565
58 6 13.6406 13.8876 15.5707 0.0706
59 6 13.9248 15.5109 13.6423 0.0550
60 6 15.4556 13.6301 14.0473 0.1628
ITEM: TIMESTEP
1300
ITEM: NUMBER OF ATOMS
60
ITEM: BOX BOUNDS pp pp pp
0.0 25.000000
0.0 25.000000
0.0 25.000000
ITEM: ATOMS id type x y z ke
1 6 12.4694 11.8547 9.1670 0.2002
2 6 11.8291 8.9840 12.5164 0.0717
3 6 9.0087 12.5501 11.8631 0.1007
4 6 12.5504 11.7919 15.8930 0.1043
5 6 11.6971 16.1004 12.4663 0.1842
6 6 15.8994 12.4816 11.8893 0.1484
7 6 12.5699 13.1312 8.8995 0.2039
8 6 13.2597 9.0116 12.3947 0.1237
9 6 9.0385 12.3311 13.2359 0.2139
10 6 12.4040 13.2118 16.0458 0.1286
11 6 13.2539 16.0747 12.5534 0.1276
12 6 16.1325 12.6545 13.3194 0.3801