ITEM: TIMESTEP
1
ITEM: NUMBER OF ATOMS
13086
ITEM: BOX BOUNDS pp pp pp
0.0 54.0
0.0 54.0
0.0 54.0
ITEM: ATOMS id type x y z
1 28 0.007 -0.043 0.034
2 28 1.795 1.842 0.009
3 25 1.832 0.034 1.878
4 28 -0.122 1.772 1.819
5 24 0.069 0.010 3.572
6 27 1.787 1.830 3.586
7 26 1.826 -0.021 5.383
8 25 -0.043 1.791 5.418
9 24 -0.016 0.033 7.300
10 24 1.809 1.763 7.256
11 24 1.826 0.015 8.995
12 24 -0.006 1.755 9.131
13 24 0.087 -0.013 10.723
14 24 1.802 1.822 10.742
15 27 1.805 -0.012 12.649
16 25 0.002 1.789 12.613
17 26 0.032 0.035 14.379
18 28 1.833 1.770 14.438
19 24 1.764 -0.011 16.339
20 24 -0.049 1.818 16.205
21 25 -0.076 0.054 18.107
22 25 1.802 1.858 18.091
23 26 1.884 0.115 19.812
24 25 0.037 1.799 19.742
25 25 -0.061 0.011 21.571
26 24 1.833 1.771 21.544
27 27 1.823 0.043 23.402
28 24 0.093 1.770 23.425
29 27 -0.042 -0.083 25.264
30 26 1.769 1.806 25.156
31 24 1.793 0.012 27.023
32 26 0.003 1.820 26.938
33 26 -0.072 0.041 28.734
34 24 1.762 1.749 28.771
35 27 1.843 -0.033 30.605
36 24 -0.024 1.757 30.565
37 28 0.010 -0.011 32.421
38 27 1.835 1.858 32.431
39 25 1.755 -0.006 34.183
40 25 -0.035 1.832 34.244
41 24 -0.068 -0.028 36.088
42 27 1.892 1.736 36.073
43 25 1.741 -0.005 37.727
44 24 0.038 1.811 37.837
45 28 0.011 -0.053 39.583
46 27 1.843 1.845 39.719
47 26 1.785 0.061 41.414
48 26 0.040 1.775 41.337
49 26 -0.028 -0.043 43.272
50 24 1.824 1.801 43.117
51 24 1.769 0.034 44.998
52 28 0.002 1.806 44.927
53 25 -0.056 -0.067 46.833
54 26 1.756 1.821 46.830
55 26 1.796 -0.032 48.458
56 26 0.018 1.789 48.613
57 24 0.033 -0.029 50.386
58 27 1.799 1.872 50.330
59 24 1.786 -0.100 52.243
60 24 0.064 1.794 52.184
61 24 -0.037 3.650 -0.013
62 27 1.754 5.411 0.000
63 28 1.788 3.623 1.804
64 25 0.036 5.339 1.677
65 27 -0.014 3.567 3.623
66 25 1.749 5.410 3.596
67 26 1.866 3.640 5.373
68 28 0.033 5.379 5.477
69 25 0.008 3.578 7.178
70 25 1.758 5.442 7.213
71 28 1.803 3.608 8.957
72 25 -0.033 5.382 9.009
73 26 -0.071 3.623 10.798
74 27 1.825 5.432 10.786
75 28 1.814 3.609 12.604
76 28 0.046 5.384 12.598
77 26 0.020 3.644 14.352
78 28 1.748 5.442 14.344
79 24 1.735 3.662 16.224
80 24 0.012 5.350 16.206
81 25 0.137 3.558 17.965
82 26 1.736 5.428 18.063
83 25 1.792 3.521 19.776
84 25 0.067 5.490 19.749
85 24 0.086 3.561 21.696
86 24 1.755 5.449 21.558
87 25 1.835 3.560 23.436
88 26 0.012 5.412 23.280
89 28 -0.042 3.518 25.186
90 25 1.776 5.377 25.106
91 27 1.802 3.558 26.965
92 25 -0.004 5.511 27.001
93 25 0.020 3.539 28.891
94 26 1.818 5.386 28.793
95 25 1.791 3.572 30.556
96 26 -0.096 5.429 30.573
97 28 -0.119 3.569 32.340
98 26 1.718 5.406 32.458
99 27 1.870 3.485 34.192
100 27 0.017 5.367 34.178
101 25 0.030 3.625 36.054
102 27 1.775 5.361 36.064
103 25 1.828 3.656 37.749
104 28 0.124 5.331 37.743
105 26 0.051 3.593 39.543
106 24 1.827 5.397 39.640
107 25 1.860 3.622 41.327
108 25 -0.035 5.437 41.508
109 25 0.084 3.691 43.242
110 24 1.805 5.355 43.235
111 27 1.823 3.654 44.890
112 26 -0.010 5.362 45.046
113 28 -0.065 3.526 46.719
114 26 1.799 5.360 46.843
115 26 1.835 3.529 48.663
116 26 0.019 5.344 48.599
117 25 -0.044 3.590 50.467
118 24 1.759 5.396 50.345
119 28 1.752 3.604 52.215
120 28 0.075 5.331 52.187
121 26 0.025 7.198 -0.036
122 27 1.808 9.002 0.007
123 26 1.834 7.249 1.815
124 27 0.020 9.046 1.829
125 26 -0.041 7.244 3.635
126 24 1.856 9.005 3.626
127 28 1.822 7.170 5.408
128 25 0.092 9.020 5.417
129 28 -0.072 7.197 7.165
130 28 1.802 9.047 7.190
131 24 1.738 7.197 9.002
132 28 0.000 9.024 9.005
133 25 -0.050 7.226 10.737
134 27 1.831 9.005 10.777
135 24 1.791 7.277 12.572
136 24 0.037 9.012 12.601
137 28 -0.001 7.185 14.363
138 24 1.788 8.955 14.461
139 28 1.811 7.215 16.158
140 26 0.023 8.955 16.109
141 25 0.103 7.200 17.909
142 26 1.867 8.976 17.943
143 28 1.837 7.192 19.745
144 27 -0.035 9.055 19.696
145 27 0.007 7.245 21.590
146 26 1.874 8.912 21.596
147 28 1.754 7.220 23.416
148 25 -0.005 9.050 23.337
149 25 0.013 7.176 25.220
150 28 1.765 8.979 25.211
151 26 1.811 7.201 27.085
152 26 -0.013 8.995 26.978
153 28 0.020 7.255 28.819
154 25 1.817 9.038 28.817
155 25 1.874 7.321 30.544
156 26 -0.025 9.031 30.554
157 25 0.110 7.159 32.415
158 24 1.719 9.062 32.462
159 28 1.738 7.243 34.250
160 28 -0.055 8.930 34.233
161 27 0.099 7.229 35.980
162 26 1.886 8.937 35.943
163 26 1.760 7.138 37.813
164 25 0.084 8.986 37.719
165 28 0.122 7.181 39.564
166 25 1.725 9.001 39.561
167 25 1.810 7.209 41.382
168 27 0.062 9.042 41.327
169 25 0.129 7.184 43.260
170 28 1.902 8.991 43.176
171 28 1.756 7.207 44.995
172 24 0.121 9.036 45.092
173 27 -0.012 7.200 46.750
174 24 1.783 8.994 46.706
175 27 1.797 7.206 48.611
176 27 -0.002 9.001 48.569
177 24 -0.016 7.196 50.418
178 25 1.722 8.981 50.392
179 26 1.758 7.225 52.276
180 24 -0.114 8.991 52.216
181 26 0.098 10.852 -0.050
182 28 1.718 12.564 0.032
183 25 1.857 10.766 1.865
184 27 -0.079 12.656 1.799
185 27 -0.063 10.848 3.587
186 26 1.755 12.571 3.701
187 28 1.758 10.809 5.348
188 24 -0.047 12.661 5.410
189 27 -0.008 10.774 7.254
190 24 1.779 12.523 7.265
191 28 1.822 10.738 8.941
192 28 -0.031 12.577 8.996
193 25 -0.103 10.791 10.759
194 24 1.732 12.663 10.725
195 28 1.825 10.861 12.651
196 24 -0.067 12.652 12.617
197 27 0.058 10.676 14.347
198 27 1.799 12.562 14.468
199 26 1.719 10.726 16.191
200 25 -0.002 12.578 16.199
201 24 -0.037 10.755 18.057
202 25 1.842 12.572 17.989
203 28 1.800 10.790 19.843
204 24 0.031 12.547 19.945
205 26 0.046 10.751 21.546
206 24 1.769 12.631 21.622
207 28 1.749 10.800 23.313
208 26 -0.010 12.595 23.398
209 26 0.000 10.810 25.131
210 24 1.695 12.545 25.179
211 28 1.794 10.904 27.029
212 24 0.098 12.731 27.019
213 27 -0.055 10.753 28.833
214 24 1.914 12.588 28.757
215 24 1.831 10.756 30.644
216 25 -0.144 12.608 30.600
217 28 0.005 10.757 32.355
218 27 1.744 12.634 32.401
219 28 1.884 10.778 34.093
220 25 0.014 12.682 34.288
221 27 -0.060 10.772 36.067
222 25 1.693 12.692 36.008
223 28 1.783 10.784 37.663
224 26 0.026 12.614 37.709
225 24 -0.116 10.710 39.662
226 27 1.782 12.591 39.541
227 28 1.733 10.711 41.364
228 25 -0.076 12.595 41.440
229 25 0.002 10.852 43.260
230 27 1.732 12.661 43.225
231 28 1.785 10.787 45.014
232 25 0.081 12.690 45.047
233 27 0.100 10.802 46.750
234 24 1.778 12.682 46.839
235 25 1.829 10.781 48.632
236 27 0.037 12.615 48.590
237 24 0.013 10.827 50.286
238 25 1.809 12.619 50.431
239 27 1.811 10.740 52.285
240 28 0.077 12.546 52.157
241 26 -0.055 14.376 -0.005
242 27 1.814 16.191 0.000
243 27 1.751 14.434 1.791
244 26 0.006 16.200 1.755
245 24 0.063 14.398 3.701
246 28 1.760 16.153 3.624
247 25 1.783 14.461 5.445
248 24 0.069 16.244 5.402
249 27 -0.111 14.443 7.075
250 28 1.843 16.182 7.191
251 25 1.917 14.393 8.965
252 24 -0.071 16.165 9.023
253 24 -0.056 14.430 10.816
254 26 1.839 16.128 10.832
255 28 1.826 14.414 12.470
256 25 0.048 16.214 12.613
257 25 0.084 14.354 14.452
258 25 1.812 16.208 14.413
259 25 1.699 14.445 16.258
260 27 -0.011 16.159 16.248
261 27 0.008 14.443 18.002
262 28 1.811 16.165 18.001
263 24 1.761 14.316 19.888
264 25 0.032 16.238 19.696
265 25 0.070 14.472 21.629
266 25 1.795 16.119 21.606
267 26 1.841 14.389 23.369
268 28 -0.008 16.167 23.353
269 26 -0.082 14.465 25.222
270 26 1.801 16.125 25.182
271 26 1.813 14.390 26.988
272 24 0.051 16.108 27.030
273 28 -0.016 14.378 28.790
274 25 1.804 16.155 28.706
275 26 1.839 14.424 30.684
276 25 0.117 16.217 30.585
277 28 0.033 14.419 32.453
278 26 1.819 16.193 32.428
279 25 1.746 14.369 34.263
280 26 0.118 16.199 34.180
281 28 -0.077 14.379 35.996
282 24 1.760 16.295 36.040
283 24 1.725 14.420 37.817
284 25 0.075 16.277 37.805
285 28 -0.003 14.452 39.554
286 28 1.776 16.240 39.564
287 24 1.767 14.386 41.422
288 25 -0.018 16.247 41.366
289 27 0.066 14.498 43.248
290 25 1.820 16.146 43.277
291 28 1.746 14.333 45.028
292 27 -0.010 16.251 44.903
293 28 -0.083 14.379 46.713
294 25 1.827 16.295 46.783
295 26 1.744 14.453 48.716
296 24 -0.078 16.154 48.634
297 26 -0.072 14.330 50.336
298 25 1.814 16.260 50.437
299 25 1.818 14.343 52.242
300 28 -0.054 16.166 52.223
301 25 0.056 17.963 -0.008
302 26 1.859 19.774 0.048
303 24 1.831 18.049 1.810
304 27 -0.047 19.786 1.840
305 28 0.036 18.023 3.629
306 27 1.767 19.870 3.540
307 27 1.769 18.069 5.400
308 24 -0.036 19.895 5.348
309 28 -0.006 18.019 7.127
310 27 1.716 19.834 7.128
311 28 1.768 17.934 8.993
312 25 0.041 19.808 9.004
313 27 -0.014 17.979 10.770
314 25 1.878 19.817 10.762
315 26 1.747 17.937 12.631
316 25 -0.018 19.838 12.623
317 28 -0.022 18.007 14.365
318 25 1.755 19.729 14.475
319 26 1.808 17.935 16.217
320 28 0.039 19.695 16.129
321 28 -0.010 18.002 17.951
322 24 1.829 19.786 18.008
323 28 1.881 17.959 19.840
324 26 0.009 19.868 19.822
325 25 0.097 17.954 21.563
326 27 1.809 19.851 21.587
327 24 1.802 18.047 23.372
328 25 0.037 19.913 23.455
329 24 0.073 17.984 25.201
330 27 1.849 19.814 25.251
331 24 1.823 17.990 26.933
332 24 0.008 19.765 26.966
333 24 -0.019 18.039 28.854
334 26 1.782 19.758 28.785
335 24 1.752 17.994 30.663
336 27 -0.011 19.794 30.546
337 25 0.020 18.094 32.377
338 25 1.825 19.778 32.391
339 24 1.741 18.005 34.259
340 27 -0.061 19.740 34.227
341 28 0.018 17.983 36.009
342 26 1.793 19.702 35.972
343 25 1.770 18.019 37.748
344 25 0.004 19.762 37.803
345 28 -0.074 18.005 39.580
346 26 1.794 19.793 39.549
347 25 1.819 17.954 41.344
348 27 -0.032 19.830 41.434
349 28 0.018 18.062 43.203
350 26 1.791 19.723 43.304
351 24 1.776 17.983 45.024
352 25 -0.048 19.819 45.044
353 25 -0.059 17.968 46.906
354 25 1.770 19.815 46.881
355 24 1.858 18.129 48.556
356 26 0.006 19.779 48.599
357 28 0.056 18.035 50.386
358 25 1.853 19.863 50.321
359 25 1.756 17.969 52.150
360 24 0.047 19.839 52.307
361 25 -0.045 21.627 -0.017
362 24 1.806 23.440 -0.021
363 24 1.694 21.629 1.708
364 25 0.024 23.386 1.765
365 25 -0.085 21.633 3.631
366 26 1.757 23.380 3.632
367 24 1.898 21.577 5.381
368 24 -0.002 23.365 5.372
369 26 -0.087 21.583 7.214
370 26 1.746 23.324 7.254
371 24 1.836 21.589 8.949
372 25 0.062 23.377 9.015
373 28 0.017 21.665 10.771
374 25 1.763 23.456 10.856
375 28 1.830 21.589 12.645
376 27 -0.089 23.347 12.686
377 27 0.001 21.547 14.398
378 28 1.824 23.424 14.395
379 27 1.722 21.634 16.161
380 27 0.038 23.410 16.157
381 28 0.041 21.663 17.982
382 28 1.822 23.406 18.086
383 28 1.783 21.550 19.779
384 26 0.026 23.373 19.738
385 26 0.000 21.519 21.556
386 28 1.875 23.393 21.673
387 25 1.843 21.544 23.300
388 26 0.033 23.445 23.296
389 27 -0.074 21.551 25.204
390 28 1.773 23.372 25.201
391 28 1.857 21.630 27.022
392 26 0.010 23.324 27.004
393 26 -0.002 21.589 28.816
394 27 1.754 23.441 28.820
395 26 1.775 21.627 30.560
396 28 0.031 23.465 30.564
397 27 0.005 21.626 32.404
398 24 1.709 23.417 32.446
399 25 1.767 21.624 34.145
400 26 0.012 23.407 34.271
401 24 -0.011 21.570 35.940
402 26 1.667 23.409 35.999
403 28 1.828 21.584 37.750
404 28 0.007 23.477 37.768
405 25 -0.115 21.522 39.671
406 28 1.797 23.339 39.645
407 26 1.885 21.619 41.458
408 24 0.072 23.360 41.386
409 26 -0.055 21.640 43.289
410 28 1.793 23.316 43.216
411 28 1.748 21.623 45.008
412 25 0.008 23.411 45.037
413 24 -0.108 21.610 46.794
414 24 1.774 23.386 46.843
415 28 1.811 21.653 48.496
416 26 0.021 23.359 48.593
417 25 0.063 21.609 50.430
418 26 1.841 23.410 50.421
419 26 1.791 21.599 52.210
420 28 -0.077 23.300 52.155
421 27 -0.023 25.254 -0.019
422 25 1.710 26.959 0.005
423 24 1.869 25.117 1.813
424 26 0.010 27.090 1.859
425 25 -0.012 25.175 3.576
426 27 1.804 27.001 3.641
427 26 1.813 25.210 5.429
428 26 -0.007 26.968 5.442
429 28 -0.057 25.181 7.158
430 28 1.879 27.024 7.124
431 28 1.910 25.195 9.005
432 27 0.025 27.059 9.004
433 28 0.057 25.224 10.768
434 26 1.717 26.977 10.799
435 28 1.869 25.262 12.538
436 24 -0.026 26.958 12.592
437 27 -0.050 25.167 14.471
438 26 1.823 26.981 14.393
439 25 1.815 25.164 16.158
440 28 0.025 26.944 16.159
441 24 -0.021 25.129 17.950
442 26 1.852 26.982 18.034
443 26 1.802 25.087 19.800
444 24 0.022 27.025 19.841
445 28 -0.059 25.223 21.624
446 26 1.744 27.031 21.619
447 25 1.823 25.125 23.481
448 27 -0.024 26.978 23.385
449 28 -0.085 25.224 25.221
450 27 1.795 27.056 25.159
451 28 1.818 25.211 26.997
452 28 0.033 27.014 27.021
453 25 -0.005 25.135 28.819
454 24 1.749 27.070 28.826
455 28 1.738 25.100 30.508
456 24 -0.017 26.938 30.536
457 27 0.059 25.202 32.288
458 28 1.730 26.913 32.396
459 27 1.857 25.110 34.217
460 26 -0.076 26.860 34.078
461 24 0.048 25.148 36.063
462 25 1.842 26.964 35.982
463 25 1.897 25.212 37.760
464 28 0.083 26.991 37.829
465 26 0.117 25.238 39.568
466 25 1.813 27.030 39.630
467 25 1.805 25.244 41.335
468 28 -0.031 27.032 41.438
469 27 -0.047 25.182 43.128
470 26 1.833 26.983 43.245
471 27 1.796 25.099 45.058
472 24 0.065 27.107 44.936
473 25 0.036 25.190 46.909
474 25 1.763 26.911 46.780
475 28 1.778 25.179 48.603
476 24 0.015 27.072 48.609
477 26 -0.075 25.178 50.483
478 27 1.696 26.875 50.436
479 26 1.908 25.300 52.171
480 24 -0.022 26.924 52.301
481 26 0.068 28.851 0.023
482 28 1.837 30.563 0.080
483 24 1.751 28.791 1.835
484 27 -0.041 30.642 1.759
485 25 0.012 28.809 3.595
486 26 1.821 30.619 3.483
487 28 1.810 28.898 5.329
488 27 0.061 30.568 5.307
489 25 0.076 28.743 7.160
490 27 1.747 30.589 7.172
491 28 1.846 28.860 9.048
492 26 -0.013 30.574 9.015
493 26 0.039 28.744 10.783
494 25 1.842 30.581 10.816
495 24 1.829 28.864 12.514
496 28 0.056 30.575 12.659
497 28 0.007 28.800 14.324
498 24 1.802 30.595 14.452
499 24 1.757 28.855 16.135
500 26 0.010 30.547 16.219
501 26 -0.070 28.822 17.967
502 28 1.864 30.677 17.965
503 28 1.814 28.804 19.838
504 24 0.053 30.673 19.711
505 28 0.026 28.783 21.605
506 26 1.872 30.604 21.675
507 28 1.732 28.805 23.411
508 26 0.069 30.615 23.289
509 28 0.084 28.790 25.250
510 27 1.793 30.574 25.175
511 24 1.886 28.796 26.987
512 27 0.030 30.575 26.906
513 27 0.005 28.745 28.699
514 28 1.786 30.642 28.764
515 24 1.815 28.836 30.606
516 27 -0.046 30.689 30.653
517 26 0.048 28.824 32.313
518 25 1.781 30.606 32.304
519 25 1.816 28.836 34.143
520 24 0.040 30.636 34.284
521 28 0.001 28.832 35.997
522 26 1.773 30.577 35.999
523 24 1.817 28.850 37.700
524 27 -0.026 30.594 37.815
525 27 -0.032 28.739 39.601
526 26 1.810 30.655 39.584
527 25 1.767 28.877 41.337
528 26 -0.007 30.635 41.445
529 28 -0.057 28.790 43.179
530 26 1.788 30.622 43.064
531 28 1.824 28.842 44.977
532 25 -0.003 30.639 44.996
533 27 0.020 28.830 46.810
534 25 1.888 30.495 46.765
535 28 1.702 28.747 48.555
536 24 0.058 30.635 48.533
537 27 -0.040 28.746 50.337
538 24 1.793 30.571 50.393
539 26 1.809 28.835 52.228
540 28 0.031 30.652 52.117
541 28 0.024 32.351 -0.084
542 27 1.794 34.264 0.002
543 24 1.864 32.479 1.764
544 27 -0.053 34.189 1.766
545 24 -0.049 32.339 3.569
546 26 1.811 34.209 3.607
547 26 1.729 32.317 5.435
548 24 -0.033 34.284 5.360
549 28 0.092 32.463 7.191
550 28 1.736 34.223 7.227
551 28 1.783 32.419 9.062
552 26 -0.043 34.169 9.041
553 26 0.004 32.406 10.839
554 26 1.769 34.150 10.796
555 28 1.848 32.336 12.660
556 24 0.104 34.150 12.558
557 28 -0.006 32.489 14.378
558 24 1.718 34.216 14.332
559 27 1.756 32.405 16.140
560 24 -0.077 34.108 16.229
561 24 0.025 32.396 18.025
562 26 1.764 34.185 18.010
563 25 1.858 32.407 19.778
564 28 0.014 34.252 19.758
565 26 -0.059 32.341 21.566
566 25 1.778 34.198 21.532
567 28 1.768 32.442 23.396
568 27 0.007 34.160 23.479
569 27 -0.016 32.327 25.141
570 25 1.854 34.204 25.166
571 26 1.739 32.434 27.013
572 28 0.012 34.156 26.962
573 24 0.012 32.388 28.796
574 28 1.819 34.221 28.854
575 27 1.767 32.352 30.461
576 24 -0.064 34.176 30.606
577 27 -0.055 32.460 32.396
578 25 1.803 34.238 32.337
579 28 1.756 32.403 34.156
580 26 0.078 34.140 34.151
581 25 0.040 32.295 35.905
582 28 1.774 34.185 36.086
583 26 1.726 32.376 37.801
584 25 -0.044 34.258 37.799
585 26 0.003 32.363 39.636
586 24 1.798 34.240 39.529
587 26 1.750 32.428 41.393
588 24 0.044 34.230 41.374
589 24 0.008 32.387 43.176
590 26 1.828 34.187 43.247
591 25 1.738 32.365 45.114
592 25 -0.003 34.234 45.054
593 25 -0.012 32.375 46.819
594 27 1.784 34.116 46.782
595 24 1.832 32.332 48.613
596 26 0.007 34.262 48.578
597 28 -0.104 32.356 50.344
598 27 1.824 34.262 50.417
599 24 1.742 32.509 52.232
600 25 -0.047 34.174 52.186
601 26 0.047 36.017 0.041
602 28 1.816 37.740 -0.076
603 27 1.767 35.991 1.772
604 28 -0.034 37.871 1.824
605 25 -0.013 35.921 3.560
606 28 1.799 37.850 3.513
607 26 1.843 35.947 5.587
608 24 -0.019 37.795 5.426
609 25 -0.018 35.953 7.355
610 26 1.763 37.847 7.257
611 26 1.821 35.982 8.928
612 24 0.055 37.859 8.963
613 27 0.021 36.005 10.846
614 26 1.810 37.839 10.816
615 25 1.827 36.087 12.591
616 26 0.017 37.799 12.651
617 24 -0.063 36.023 14.325
618 26 1.842 37.770 14.496
619 28 1.794 35.989 16.119
620 28 0.020 37.849 16.166
621 25 -0.060 36.066 18.062
622 28 1.821 37.820 17.960
623 24 1.800 36.039 19.766
624 27 -0.048 37.762 19.791
625 25 -0.106 35.964 21.530
626 27 1.771 37.795 21.646
627 27 1.723 36.041 23.435
628 26 0.052 37.766 23.414
629 25 0.087 36.043 25.207
630 24 1.826 37.854 25.211
631 27 1.774 36.004 27.012
632 24 -0.007 37.744 26.974
633 25 0.007 36.019 28.709
634 26 1.802 37.772 28.883
635 26 1.775 35.944 30.591
636 25 0.045 37.900 30.628
637 28 0.010 35.996 32.410
638 25 1.810 37.828 32.406
639 28 1.826 36.077 34.269
640 28 0.099 37.852 34.293
641 28 -0.004 36.022 36.004
642 27 1.846 37.830 35.932
643 24 1.756 35.974 37.802
644 27 -0.047 37.816 37.896
645 24 -0.025 36.081 39.658
646 28 1.749 37.802 39.649
647 24 1.785 36.026 41.351
648 26 0.020 37.764 41.387
649 25 -0.014 36.036 43.252
650 24 1.858 37.801 43.189
651 26 1.743 35.928 44.983
652 24 0.053 37.845 45.107
653 26 0.010 35.966 46.784
654 24 1.711 37.717 46.761
655 28 1.798 35.949 48.569
656 26 -0.097 37.808 48.572
657 28 -0.068 36.000 50.526
658 25 1.804 37.749 50.474
659 27 1.817 36.002 52.112
660 24 -0.047 37.769 52.168
661 25 0.079 39.545 0.031
662 28 1.848 41.383 -0.017
663 26 1.743 39.597 1.825
664 26 0.054 41.381 1.826
665 24 -0.015 39.598 3.731
666 24 1.820 41.504 3.580
667 24 1.814 39.635 5.367
668 24 0.056 41.308 5.302
669 27 -0.044 39.637 7.227
670 27 1.745 41.405 7.270
671 27 1.794 39.585 9.024
672 28 -0.061 41.456 8.986
673 25 0.014 39.592 10.819
674 26 1.773 41.429 10.751
675 24 1.757 39.688 12.645
676 27 -0.093 41.351 12.561
677 28 -0.071 39.554 14.463
678 25 1.809 41.388 14.433
679 24 1.763 39.593 16.223
680 28 0.019 41.352 16.233
681 25 -0.051 39.653 18.043
682 28 1.740 41.492 18.000
683 24 1.862 39.633 19.761
684 28 0.002 41.465 19.764
685 27 0.015 39.600 21.549
686 28 1.741 41.399 21.595
687 26 1.713 39.622 23.441
688 24 -0.009 41.411 23.477
689 28 0.015 39.614 25.109
690 28 1.764 41.323 25.198
691 24 1.797 39.631 27.045
692 28 0.007 41.352 26.996
693 26 0.010 39.531 28.772
694 25 1.886 41.428 28.817
695 25 1.792 39.590 30.580
696 24 0.026 41.307 30.570
697 25 0.037 39.526 32.368
698 26 1.713 41.442 32.350
699 25 1.823 39.588 34.162
700 24 -0.056 41.464 34.154
701 27 -0.006 39.669 36.063
702 26 1.815 41.349 35.978
703 28 1.779 39.548 37.707
704 28 0.018 41.372 37.756
705 27 0.084 39.630 39.534
706 28 1.769 41.238 39.699
707 27 1.748 39.623 41.426
708 24 -0.023 41.372 41.324
709 28 0.006 39.590 43.271
710 26 1.753 41.386 43.193
711 27 1.735 39.584 45.049
712 27 -0.061 41.345 44.996
713 27 0.059 39.558 46.858
714 25 1.855 41.423 46.845
715 27 1.744 39.600 48.535
716 28 -0.044 41.325 48.600
717 24 -0.011 39.624 50.431
718 28 1.902 41.384 50.344
719 28 1.798 39.621 52.211
720 25 0.012 41.428 52.154
721 27 -0.012 43.216 -0.086
722 28 1.862 45.048 -0.104
723 26 1.808 43.172 1.770
724 26 -0.050 44.945 1.881
725 25 -0.069 43.301 3.592
726 25 1.747 44.988 3.645
727 28 1.812 43.225 5.425
728 28 0.034 45.017 5.432
729 26 -0.029 43.203 7.222
730 24 1.775 44.974 7.172
731 25 1.809 43.196 8.960
732 25 -0.004 45.047 9.062
733 24 -0.072 43.155 10.808
734 25 1.882 44.998 10.728
735 25 1.755 43.197 12.678
736 28 0.018 45.006 12.643
737 25 0.007 43.209 14.449
738 27 1.852 45.097 14.477
739 26 1.833 43.120 16.254
740 24 0.016 45.043 16.151
741 28 0.028 43.163 18.032
742 27 1.803 45.060 17.992
743 24 1.796 43.088 19.735
744 24 0.037 44.957 19.813
745 27 -0.096 43.197 21.614
746 28 1.772 45.038 21.651
747 24 1.862 43.181 23.366
748 26 -0.017 45.067 23.431
749 25 -0.033 43.197 25.168
750 27 1.842 45.096 25.235
751 27 1.774 43.297 26.891
752 26 -0.083 44.955 26.943
753 25 0.079 43.336 28.821
754 26 1.728 45.025 28.819
755 24 1.848 43.205 30.553
756 28 0.075 45.045 30.630
757 24 -0.042 43.151 32.411
758 25 1.766 44.942 32.377
759 27 1.857 43.200 34.189
760 26 0.040 45.041 34.157
761 28 -0.044 43.136 36.021
762 25 1.839 44.945 36.045
763 25 1.802 43.223 37.745
764 28 -0.020 45.011 37.817
765 27 -0.007 43.239 39.605
766 27 1.717 44.978 39.580
767 24 1.861 43.202 41.386
768 25 -0.019 44.960 41.333
769 27 -0.006 43.148 43.258
770 25 1.816 44.974 43.220
771 28 1.834 43.167 45.065
772 25 -0.077 45.026 45.045
773 27 0.023 43.180 46.810
774 28 1.749 45.030 46.753
775 25 1.812 43.229 48.618
776 27 0.045 44.997 48.554
777 28 0.012 43.260 50.408
778 28 1.747 45.070 50.344
779 27 1.858 43.120 52.111
780 28 0.025 44.990 52.226
781 25 -0.024 46.754 0.026
782 24 1.869 48.702 0.119
783 25 1.758 46.858 1.784
784 24 0.061 48.670 1.892
785 26 0.046 46.731 3.621
786 27 1.748 48.554 3.680
787 27 1.840 46.860 5.451
788 28 -0.070 48.486 5.452
789 25 0.062 46.779 7.127
790 26 1.766 48.514 7.204
791 27 1.787 46.800 9.003
792 24 0.033 48.588 9.084
793 28 -0.087 46.832 10.869
794 28 1.803 48.588 10.768
795 28 1.739 46.850 12.654
796 25 0.101 48.582 12.591
797 25 0.033 46.901 14.512
798 25 1.874 48.605 14.510
799 25 1.831 46.800 16.173
800 26 0.040 48.637 16.229
801 24 -0.077 46.775 18.017
802 28 1.846 48.563 17.972
803 24 1.797 46.786 19.790
804 28 0.015 48.644 19.827
805 25 -0.026 46.813 21.650
806 28 1.783 48.624 21.551
807 24 1.762 46.808 23.379
808 27 -0.001 48.596 23.483
809 25 0.078 46.833 25.209
810 27 1.840 48.620 25.180
811 28 1.900 46.782 26.914
812 24 -0.037 48.670 26.995
813 26 0.027 46.827 28.790
814 28 1.806 48.625 28.772
815 27 1.832 46.811 30.531
816 25 0.014 48.604 30.484
817 26 -0.005 46.831 32.346
818 28 1.798 48.674 32.412
819 27 1.816 46.849 34.197
820 25 -0.029 48.630 34.157
821 26 0.097 46.779 36.010
822 27 1.847 48.586 35.995
823 27 1.742 46.850 37.872
824 25 0.024 48.664 37.738
825 28 -0.028 46.836 39.689
826 25 1.760 48.583 39.699
827 27 1.745 46.810 41.464
828 26 -0.020 48.616 41.282
829 28 -0.053 46.802 43.183
830 27 1.785 48.656 43.163
831 25 1.787 46.825 45.146
832 26 0.055 48.626 44.972
833 26 0.010 46.814 46.754
834 26 1.811 48.676 46.831
835 28 1.856 46.817 48.731
836 24 0.005 48.584 48.534
837 25 -0.001 46.786 50.425
838 27 1.812 48.592 50.413
839 26 1.817 46.793 52.218
840 25 -0.045 48.520 52.173
841 24 0.011 50.360 -0.046
842 24 1.716 52.269 0.034
843 28 1.871 50.408 1.816
844 27 -0.057 52.224 1.817
845 24 0.074 50.374 3.587
846 26 1.754 52.304 3.643
847 25 1.778 50.395 5.436
848 27 0.096 52.122 5.424
849 26 0.019 50.351 7.240
850 25 1.804 52.165 7.194
851 24 1.797 50.419 9.001
852 25 0.012 52.185 8.960
853 27 0.008 50.437 10.771
854 25 1.878 52.193 10.825
855 27 1.748 50.509 12.611
856 27 -0.029 52.177 12.675
857 26 -0.060 50.446 14.314
858 24 1.844 52.144 14.414
859 25 1.734 50.371 16.081
860 26 0.045 52.170 16.255
861 26 0.033 50.426 18.068
862 24 1.815 52.143 18.133
863 27 1.755 50.455 19.867
864 25 0.016 52.222 19.785
865 27 0.037 50.390 21.585
866 28 1.818 52.256 21.605
867 25 1.757 50.429 23.443
868 25 -0.016 52.301 23.451
869 27 0.022 50.377 25.208
870 25 1.865 52.158 25.142
871 26 1.815 50.437 26.990
872 24 -0.018 52.271 26.968
873 26 0.063 50.362 28.818
874 27 1.757 52.238 28.858
875 24 1.793 50.395 30.596
876 25 0.036 52.115 30.606
877 24 0.021 50.406 32.377
878 27 1.761 52.257 32.516
879 25 1.794 50.458 34.325
880 25 0.066 52.173 34.148
881 27 0.026 50.405 36.008
882 26 1.770 52.191 35.971
883 26 1.684 50.388 37.812
884 27 -0.002 52.162 37.881
885 27 -0.013 50.500 39.640
886 27 1.805 52.276 39.614
887 27 1.815 50.418 41.315
888 24 0.075 52.205 41.484
889 26 -0.032 50.370 43.219
890 26 1.685 52.120 43.151
891 25 1.784 50.450 44.986
892 24 0.013 52.214 44.959
893 26 0.038 50.389 46.738
894 27 1.783 52.117 46.775
895 27 1.793 50.399 48.771
896 28 0.030 52.236 48.697
897 27 0.095 50.315 50.363
898 26 1.715 52.111 50.432
899 25 1.853 50.467 52.174
900 26 -0.039 52.069 52.134
901 26 3.609 0.013 0.099
902 25 5.431 1.834 0.010
903 25 5.377 -0.051 1.803
904 25 3.677 1.840 1.821
905 28 3.637 0.016 3.602
906 26 5.405 1.892 3.584
907 26 5.451 -0.011 5.395
908 24 3.591 1.846 5.477
909 28 3.611 0.057 7.212
910 25 5.388 1.722 7.180
911 25 5.364 -0.038 8.985
912 24 3.680 1.816 9.039
913 24 3.567 -0.089 10.861
914 28 5.364 1.789 10.779
915 24 5.363 -0.020 12.626
916 26 3.672 1.762 12.709
917 24 3.576 -0.022 14.385
918 28 5.402 1.744 14.387
919 27 5.390 -0.046 16.137
920 25 3.562 1.831 16.228
921 25 3.677 0.070 18.096
922 25 5.394 1.802 17.984
923 24 5.357 0.030 19.711
924 27 3.637 1.793 19.833
925 27 3.627 0.037 21.638
926 27 5.442 1.795 21.602
927 27 5.281 -0.033 23.406
928 28 3.557 1.728 23.409
929 27 3.593 -0.023 25.226
930 27 5.390 1.775 25.210
931 25 5.368 0.021 26.982
932 24 3.537 1.782 27.052
933 24 3.678 0.060 28.681
934 28 5.401 1.810 28.785
935 28 5.414 0.057 30.650
936 25 3.534 1.811 30.617
937 25 3.607 -0.004 32.262
938 28 5.439 1.875 32.382
939 27 5.362 -0.003 34.228
940 27 3.583 1.872 34.211
941 24 3.605 -0.007 35.954
942 28 5.339 1.827 35.896
943 26 5.496 0.053 37.841
944 24 3.617 1.735 37.788
945 25 3.612 0.080 39.580
946 28 5.334 1.784 39.591
947 24 5.362 -0.046 41.409
948 25 3.548 1.771 41.445
949 26 3.642 -0.029 43.229
950 25 5.433 1.895 43.190
951 26 5.345 -0.050 45.026
952 24 3.649 1.847 44.976
953 28 3.522 0.041 46.812
954 25 5.403 1.747 46.917
955 25 5.501 -0.021 48.596
956 28 3.613 1.691 48.579
957 26 3.542 0.036 50.424
958 26 5.429 1.791 50.346
959 25 5.476 0.012 52.237
960 26 3.543 1.721 52.155
961 28 3.626 3.568 0.019
962 27 5.374 5.440 -0.075
963 24 5.330 3.619 1.795
964 24 3.542 5.389 1.822
965 24 3.572 3.496 3.610
966 27 5.440 5.331 3.618
967 26 5.399 3.582 5.403
968 25 3.580 5.394 5.452
969 28 3.570 3.615 7.179
970 27 5.381 5.492 7.221
971 28 5.401 3.557 9.086
972 24 3.582 5.421 8.957
973 27 3.559 3.521 10.747
974 26 5.400 5.382 10.853
975 27 5.296 3.635 12.496
976 26 3.622 5.427 12.605
977 24 3.561 3.641 14.352
978 27 5.443 5.346 14.421
979 24 5.339 3.631 16.257
980 28 3.697 5.351 16.208
981 25 3.585 3.746 18.017
982 25 5.431 5.383 17.982
983 28 5.352 3.619 19.823
984 28 3.581 5.447 19.827
985 27 3.653 3.581 21.643
986 26 5.411 5.429 21.633
987 25 5.394 3.657 23.422
988 27 3.581 5.383 23.401
989 27 3.474 3.657 25.310
990 27 5.349 5.367 25.189
991 26 5.462 3.526 27.032
992 24 3.538 5.377 27.086
993 26 3.603 3.608 28.900
994 26 5.372 5.351 28.813
995 27 5.330 3.579 30.590
996 27 3.585 5.505 30.497
997 28 3.559 3.641 32.399
998 26 5.322 5.440 32.380
999 27 5.414 3.598 34.157
1000 26 3.656 5.406 34.207
1001 27 3.545 3.569 35.979
1002 27 5.482 5.479 36.011
1003 28 5.439 3.718 37.819
1004 25 3.595 5.381 37.943
1005 25 3.574 3.683 39.585
1006 25 5.480 5.402 39.645
1007 24 5.449 3.591 41.331
1008 28 3.578 5.308 41.371
1009 25 3.623 3.742 43.140
1010 25 5.390 5.331 43.117
1011 25 5.488 3.647 44.978
1012 27 3.521 5.386 44.937
1013 27 3.683 3.585 46.817
1014 26 5.324 5.415 46.810
1015 28 5.398 3.579 48.697
1016 26 3.626 5.391 48.664
1017 24 3.523 3.606 50.537
1018 24 5.351 5.349 50.414
1019 27 5.410 3.574 52.136
1020 28 3.619 5.427 52.187
1021 24 3.563 7.262 -0.041
1022 27 5.355 9.032 0.025
1023 28 5.407 7.288 1.793
1024 24 3.467 8.891 1.804
1025 24 3.691 7.239 3.570
1026 28 5.392 8.972 3.633
1027 24 5.397 7.205 5.370
1028 24 3.603 8.961 5.390
1029 28 3.540 7.126 7.198
1030 26 5.391 8.954 7.285
1031 25 5.381 7.188 9.043
1032 28 3.659 9.010 8.967
1033 24 3.594 7.157 10.765
1034 25 5.458 8.993 10.880
1035 27 5.384 7.198 12.529
1036 28 3.557 8.960 12.595
1037 25 3.512 7.245 14.417
1038 24 5.381 9.008 14.364
1039 26 5.412 7.208 16.098
1040 28 3.590 9.021 16.205
1041 28 3.531 7.172 17.939
1042 25 5.436 8.912 17.986
1043 28 5.396 7.214 19.818
1044 25 3.650 8.937 19.788
1045 25 3.575 7.252 21.647
1046 25 5.376 9.105 21.600
1047 27 5.385 7.173 23.414
1048 27 3.602 8.983 23.445
1049 25 3.721 7.187 25.158
1050 28 5.378 9.088 25.217
1051 24 5.446 7.243 27.039
1052 24 3.589 8.923 27.020
1053 24 3.554 7.193 28.808
1054 25 5.313 9.041 28.786
1055 25 5.439 7.221 30.668
1056 24 3.575 9.028 30.605
1057 24 3.584 7.119 32.392
1058 27 5.443 8.967 32.385
1059 24 5.499 7.156 34.170
1060 28 3.569 9.027 34.101
1061 24 3.631 7.175 36.051
1062 26 5.340 8.933 36.134
1063 24 5.436 7.227 37.800
1064 24 3.648 8.940 37.813
1065 28 3.603 7.208 39.626
1066 26 5.384 8.929 39.690
1067 26 5.398 7.208 41.410
1068 25 3.550 9.034 41.416
1069 24 3.619 7.161 43.157
1070 26 5.462 9.088 43.160
1071 25 5.333 7.207 45.055
1072 25 3.624 8.970 45.024
1073 27 3.602 7.267 46.735
1074 26 5.307 8.979 46.903
1075 25 5.411 7.232 48.576
1076 28 3.599 9.100 48.618
1077 28 3.613 7.167 50.460
1078 28 5.430 8.981 50.389
1079 25 5.422 7.189 52.210
1080 24 3.547 8.998 52.225
1081 28 3.570 10.758 0.094
1082 26 5.427 12.634 -0.039
1083 24 5.300 10.770 1.768
1084 24 3.646 12.549 1.801
1085 25 3.533 10.738 3.614
1086 26 5.447 12.466 3.649
1087 28 5.419 10.876 5.410
1088 28 3.629 12.545 5.398
1089 26 3.616 10.797 7.266
1090 25 5.434 12.554 7.164
1091 26 5.489 10.842 9.031
1092 28 3.590 12.622 8.985
1093 28 3.592 10.814 10.838
1094 27 5.294 12.598 10.818
1095 24 5.476 10.812 12.679
1096 28 3.562 12.550 12.514
1097 27 3.613 10.786 14.336
1098 27 5.379 12.608 14.431
1099 25 5.427 10.846 16.196
1100 26 3.602 12.581 16.149
1101 27 3.676 10.838 17.957
1102 27 5.379 12.588 17.978
1103 26 5.433 10.780 19.741
1104 24 3.584 12.587 19.763
1105 25 3.663 10.846 21.655
1106 26 5.419 12.536 21.698
1107 26 5.387 10.826 23.361
1108 28 3.667 12.606 23.413
1109 28 3.632 10.784 25.147
1110 27 5.403 12.690 25.231
1111 27 5.472 10.747 27.000
1112 26 3.661 12.653 26.965
1113 28 3.552 10.788 28.813
1114 28 5.399 12.645 28.797
1115 25 5.380 10.815 30.705
1116 24 3.640 12.632 30.613
1117 28 3.574 10.870 32.301
1118 24 5.407 12.538 32.362