ITEM: TIMESTEP
1
ITEM: NUMBER OF ATOMS
13120
ITEM: BOX BOUNDS pp pp pp
0.0 54.0
0.0 54.0
0.0 54.0
ITEM: ATOMS id type x y z
1 25 -0.050 0.019 0.017
2 28 1.732 1.750 0.005
3 25 1.789 0.007 1.761
4 26 0.016 1.757 1.847
5 27 0.022 -0.092 3.647
6 24 1.767 1.704 3.545
7 26 1.833 0.065 5.330
8 28 -0.042 1.791 5.437
9 28 -0.007 -0.011 7.250
10 26 1.816 1.868 7.190
11 24 1.725 0.021 8.977
12 27 0.066 1.822 8.946
13 25 -0.011 -0.057 10.774
14 28 1.837 1.745 10.858
15 25 1.825 0.055 12.603
16 25 0.056 1.777 12.566
17 25 -0.064 -0.004 14.415
18 25 1.804 1.823 14.459
19 26 1.742 -0.005 16.167
20 26 0.001 1.883 16.225
21 25 -0.003 0.061 17.968
22 25 1.771 1.782 18.120
23 25 1.794 -0.050 19.771
24 25 0.051 1.811 19.741
25 25 0.056 0.052 21.613
26 25 1.817 1.769 21.620
27 25 1.791 0.019 23.417
28 25 -0.020 1.793 23.451
29 27 -0.027 0.012 25.180
30 27 1.774 1.726 25.165
31 24 1.866 0.088 26.991
32 26 0.016 1.791 27.071
33 27 -0.024 0.031 28.741
34 25 1.834 1.748 28.857
35 28 1.778 0.016 30.644
36 25 -0.040 1.834 30.538
37 27 0.070 -0.022 32.387
38 25 1.772 1.771 32.467
39 26 1.774 -0.072 34.174
40 27 0.119 1.820 34.220
41 27 0.117 0.052 36.025
42 28 1.842 1.735 36.053
43 25 1.780 -0.025 37.750
44 28 -0.059 1.784 37.816
45 24 0.060 -0.031 39.680
46 28 1.880 1.871 39.537
47 24 1.807 0.024 41.383
48 27 -0.074 1.816 41.353
49 25 -0.017 -0.057 43.181
50 25 1.843 1.864 43.239
51 25 1.850 0.005 44.990
52 24 0.004 1.782 44.966
53 26 0.007 -0.021 46.787
54 27 1.765 1.818 46.887
55 24 1.816 0.052 48.589
56 27 0.033 1.805 48.635
57 28 -0.033 0.062 50.366
58 27 1.749 1.788 50.378
59 28 1.851 0.006 52.111
60 28 -0.008 1.867 52.158
61 25 -0.012 3.616 -0.014
62 28 1.777 5.351 0.018
63 24 1.843 3.651 1.778
64 28 0.016 5.390 1.838
65 25 -0.013 3.550 3.571
66 26 1.746 5.378 3.566
67 28 1.736 3.595 5.350
68 28 0.015 5.313 5.419
69 24 -0.049 3.601 7.188
70 24 1.765 5.390 7.187
71 27 1.793 3.504 8.998
72 28 -0.000 5.407 8.912
73 28 -0.019 3.548 10.807
74 24 1.765 5.395 10.839
75 24 1.872 3.607 12.562
76 24 -0.009 5.374 12.614
77 27 -0.010 3.645 14.381
78 25 1.886 5.346 14.347
79 24 1.758 3.581 16.141
80 24 0.137 5.377 16.243
81 28 -0.045 3.542 17.936
82 28 1.717 5.433 18.027
83 28 1.810 3.606 19.740
84 28 -0.010 5.321 19.751
85 26 -0.015 3.656 21.697
86 25 1.756 5.398 21.604
87 26 1.841 3.558 23.483
88 24 -0.026 5.370 23.467
89 27 0.085 3.549 25.228
90 24 1.821 5.429 25.295
91 28 1.835 3.664 27.025
92 24 0.033 5.355 27.067
93 24 0.049 3.579 28.808
94 27 1.843 5.536 28.804
95 26 1.845 3.615 30.643
96 28 -0.046 5.386 30.647
97 25 -0.032 3.547 32.368
98 25 1.804 5.388 32.436
99 28 1.803 3.756 34.274
100 25 0.088 5.413 34.139
101 26 0.066 3.593 35.973
102 24 1.896 5.387 35.956
103 26 1.800 3.695 37.800
104 26 -0.071 5.306 37.727
105 25 0.011 3.565 39.515
106 28 1.726 5.298 39.573
107 26 1.743 3.622 41.431
108 24 -0.148 5.371 41.381
109 26 -0.037 3.558 43.164
110 26 1.802 5.444 43.207
111 26 1.854 3.536 44.888
112 27 0.006 5.310 44.949
113 26 0.006 3.608 46.639
114 26 1.796 5.328 46.733
115 26 1.693 3.622 48.628
116 25 -0.005 5.426 48.683
117 26 0.076 3.628 50.380
118 24 1.865 5.413 50.531
119 27 1.721 3.586 52.211
120 26 -0.091 5.401 52.211
121 25 0.007 7.186 0.047
122 24 1.792 9.075 -0.077
123 27 1.831 7.091 1.748
124 28 -0.071 8.973 1.857
125 27 0.009 7.255 3.674
126 25 1.839 9.027 3.595
127 27 1.841 7.227 5.414
128 27 0.023 9.001 5.423
129 26 0.062 7.188 7.257
130 28 1.813 9.004 7.217
131 26 1.777 7.339 8.915
132 27 -0.009 8.956 9.097
133 24 0.110 7.211 10.931
134 28 1.840 9.018 10.830
135 26 1.818 7.276 12.573
136 25 0.011 8.959 12.547
137 24 -0.104 7.147 14.393
138 28 1.788 9.048 14.414
139 28 1.780 7.146 16.165
140 28 -0.091 9.028 16.256
141 26 -0.076 7.106 18.063
142 28 1.788 8.915 18.008
143 26 1.696 7.251 19.793
144 27 0.078 9.040 19.750
145 28 -0.056 7.224 21.637
146 28 1.830 8.939 21.666
147 24 1.759 7.213 23.395
148 24 0.017 9.011 23.411
149 24 0.031 7.175 25.149
150 24 1.782 9.018 25.162
151 27 1.774 7.181 27.087
152 28 -0.026 9.042 26.992
153 24 0.029 7.088 28.760
154 24 1.844 8.916 28.810
155 26 1.773 7.185 30.598
156 27 -0.032 8.961 30.570
157 26 -0.038 7.231 32.428
158 26 1.768 8.960 32.435
159 24 1.748 7.294 34.190
160 27 0.061 9.039 34.142
161 24 -0.046 7.227 36.033
162 28 1.766 9.048 35.960
163 27 1.759 7.248 37.844
164 26 0.084 8.977 37.693
165 28 0.016 7.159 39.563
166 26 1.767 9.005 39.590
167 28 1.835 7.202 41.407
168 28 -0.006 8.891 41.437
169 27 -0.015 7.205 43.137
170 24 1.766 9.072 43.200
171 25 1.777 7.181 45.011
172 26 0.003 8.928 44.976
173 26 0.004 7.250 46.826
174 24 1.747 8.958 46.816
175 26 1.732 7.169 48.574
176 24 0.024 9.046 48.540
177 26 -0.116 7.188 50.459
178 27 1.833 8.987 50.293
179 28 1.822 7.161 52.180
180 27 -0.014 9.034 52.144
181 28 -0.034 10.853 -0.061
182 26 1.852 12.617 -0.078
183 27 1.836 10.851 1.752
184 26 0.030 12.637 1.775
185 24 0.071 10.749 3.709
186 24 1.745 12.592 3.583
187 25 1.896 10.832 5.385
188 28 -0.051 12.641 5.324
189 25 0.062 10.808 7.180
190 24 1.782 12.565 7.119
191 24 1.821 10.778 8.913
192 25 0.071 12.534 8.938
193 25 -0.091 10.797 10.735
194 28 1.749 12.658 10.867
195 27 1.832 10.798 12.614
196 25 0.031 12.643 12.596
197 27 0.015 10.869 14.458
198 25 1.764 12.618 14.445
199 28 1.827 10.800 16.191
200 28 -0.016 12.664 16.238
201 28 0.030 10.748 18.053
202 25 1.848 12.646 17.944
203 28 1.852 10.773 19.754
204 25 -0.010 12.574 19.793
205 27 -0.060 10.755 21.530
206 28 1.693 12.558 21.587
207 25 1.731 10.789 23.372
208 24 -0.019 12.656 23.451
209 27 -0.026 10.719 25.217
210 28 1.700 12.595 25.257
211 27 1.766 10.727 27.061
212 26 -0.023 12.590 27.098
213 24 -0.008 10.675 28.784
214 27 1.799 12.645 28.819
215 27 1.767 10.775 30.644
216 27 0.003 12.617 30.545
217 25 0.057 10.811 32.316
218 28 1.833 12.627 32.446
219 28 1.765 10.800 34.099
220 24 -0.014 12.561 34.264
221 25 -0.018 10.740 36.019
222 28 1.782 12.591 36.023
223 26 1.826 10.796 37.707
224 28 0.025 12.578 37.743
225 27 -0.027 10.736 39.587
226 24 1.813 12.632 39.535
227 24 1.800 10.739 41.381
228 28 -0.018 12.595 41.409
229 28 -0.029 10.824 43.216
230 26 1.829 12.619 43.116
231 25 1.757 10.853 44.924
232 24 0.050 12.641 45.011
233 26 0.080 10.835 46.831
234 26 1.860 12.529 46.740
235 28 1.797 10.751 48.708
236 25 -0.077 12.623 48.716
237 26 -0.040 10.810 50.360
238 26 1.802 12.569 50.412
239 24 1.788 10.839 52.200
240 28 0.022 12.549 52.143
241 26 -0.065 14.344 -0.003
242 25 1.879 16.202 -0.010
243 24 1.773 14.397 1.880
244 28 -0.021 16.218 1.741
245 27 0.039 14.324 3.642
246 27 1.786 16.125 3.664
247 27 1.684 14.366 5.534
248 28 -0.131 16.208 5.447
249 24 0.103 14.357 7.190
250 28 1.745 16.290 7.158
251 24 1.753 14.446 9.061
252 24 -0.066 16.208 9.036
253 25 -0.040 14.356 10.782
254 27 1.840 16.227 10.781
255 24 1.838 14.392 12.697
256 24 0.067 16.219 12.518
257 24 -0.050 14.404 14.425
258 24 1.830 16.208 14.389
259 27 1.861 14.351 16.211
260 25 -0.004 16.160 16.308
261 24 0.053 14.311 17.970
262 25 1.819 16.218 17.986
263 25 1.846 14.402 19.824
264 26 0.115 16.178 19.718
265 28 -0.030 14.372 21.560
266 28 1.865 16.267 21.625
267 28 1.783 14.435 23.398
268 24 0.031 16.143 23.501
269 26 -0.047 14.385 25.185
270 27 1.756 16.147 25.232
271 28 1.770 14.318 26.960
272 27 -0.061 16.133 27.009
273 26 0.022 14.425 28.743
274 24 1.798 16.283 28.884
275 25 1.792 14.476 30.587
276 24 0.040 16.191 30.639
277 25 -0.005 14.446 32.442
278 25 1.880 16.172 32.371
279 24 1.829 14.414 34.222
280 25 0.053 16.261 34.225
281 25 0.027 14.449 35.886
282 24 1.754 16.312 36.007
283 25 1.825 14.360 37.820
284 28 -0.003 16.214 37.703
285 24 -0.027 14.386 39.604
286 25 1.881 16.202 39.498
287 24 1.742 14.451 41.418
288 24 -0.007 16.150 41.412
289 24 -0.033 14.463 43.255
290 24 1.788 16.171 43.231
291 26 1.606 14.481 45.046
292 28 0.008 16.241 44.945
293 24 -0.003 14.386 46.853
294 25 1.741 16.220 46.817
295 28 1.870 14.474 48.664
296 25 -0.047 16.141 48.616
297 26 -0.086 14.420 50.335
298 27 1.723 16.269 50.397
299 25 1.828 14.382 52.206
300 25 -0.106 16.080 52.130
301 25 -0.020 18.008 -0.058
302 24 1.803 19.831 0.041
303 28 1.757 18.072 1.807
304 24 -0.013 19.887 1.835
305 25 -0.041 18.072 3.701
306 26 1.807 19.805 3.593
307 27 1.814 18.017 5.365
308 26 0.057 19.768 5.426
309 25 -0.050 17.996 7.273
310 27 1.802 19.759 7.152
311 28 1.803 18.018 9.012
312 27 0.023 19.830 9.018
313 26 0.009 18.058 10.723
314 26 1.744 19.816 10.725
315 26 1.716 18.040 12.462
316 25 0.052 19.770 12.717
317 27 -0.001 17.949 14.454
318 28 1.775 19.813 14.309
319 28 1.860 18.097 16.222
320 26 0.083 19.847 16.177
321 27 0.054 17.976 18.034
322 25 1.808 19.785 17.999
323 26 1.843 18.062 19.812
324 25 0.038 19.762 19.712
325 24 -0.016 17.960 21.610
326 24 1.745 19.757 21.560
327 26 1.800 17.874 23.461
328 26 -0.051 19.781 23.445
329 28 -0.020 18.089 25.188
330 26 1.864 19.830 25.192
331 28 1.833 18.083 26.915
332 25 -0.002 19.745 26.995
333 26 -0.006 17.974 28.756
334 28 1.806 19.780 28.826
335 24 1.698 17.926 30.654
336 25 -0.066 19.858 30.656
337 24 0.017 18.060 32.346
338 26 1.851 19.744 32.398
339 27 1.828 17.985 34.136
340 25 0.028 19.838 34.204
341 27 0.065 17.897 35.920
342 26 1.794 19.796 36.035
343 28 1.824 17.970 37.786
344 27 0.038 19.716 37.815
345 25 -0.104 18.015 39.624
346 25 1.908 19.713 39.683
347 25 1.774 18.067 41.303
348 26 -0.122 19.737 41.375
349 27 0.005 17.991 43.204
350 28 1.782 19.781 43.206
351 27 1.857 18.043 44.980
352 27 -0.014 19.807 45.043
353 27 0.107 18.005 46.876
354 28 1.824 19.812 46.761
355 27 1.697 18.139 48.625
356 28 0.048 19.814 48.638
357 25 0.047 18.009 50.360
358 26 1.824 19.733 50.366
359 27 1.892 18.032 52.250
360 25 -0.037 19.800 52.142
361 24 0.083 21.689 0.007
362 25 1.808 23.449 -0.012
363 26 1.822 21.520 1.759
364 24 0.044 23.384 1.787
365 25 0.013 21.596 3.530
366 28 1.793 23.481 3.569
367 26 1.843 21.583 5.404
368 27 0.050 23.383 5.419
369 26 -0.024 21.649 7.262
370 25 1.825 23.491 7.187
371 26 1.774 21.637 8.990
372 24 0.017 23.446 9.017
373 25 -0.002 21.566 10.820
374 26 1.815 23.447 10.899
375 27 1.698 21.714 12.569
376 24 -0.021 23.448 12.555
377 27 0.053 21.633 14.436
378 25 1.772 23.429 14.305
379 28 1.788 21.551 16.198
380 26 0.052 23.358 16.202
381 25 -0.044 21.610 18.017
382 25 1.816 23.412 18.029
383 26 1.800 21.601 19.726
384 27 0.098 23.395 19.819
385 28 -0.062 21.502 21.671
386 24 1.797 23.411 21.604
387 26 1.815 21.530 23.441
388 24 0.037 23.367 23.346
389 25 -0.061 21.650 25.157
390 25 1.783 23.352 25.270
391 26 1.804 21.722 26.983
392 28 0.004 23.403 26.979
393 26 0.049 21.593 28.791
394 27 1.786 23.449 28.843
395 25 1.804 21.641 30.547
396 26 0.094 23.397 30.553
397 26 -0.016 21.592 32.415
398 28 1.848 23.483 32.333
399 28 1.724 21.585 34.181
400 26 -0.008 23.446 34.134
401 25 -0.099 21.574 35.939
402 24 1.725 23.398 35.950
403 27 1.842 21.573 37.799
404 25 -0.076 23.391 37.706
405 24 -0.025 21.486 39.630
406 26 1.814 23.438 39.611
407 28 1.799 21.633 41.346
408 25 -0.005 23.435 41.542
409 28 -0.055 21.579 43.256
410 24 1.857 23.421 43.205
411 27 1.839 21.571 45.061
412 28 -0.008 23.410 45.064
413 27 0.105 21.665 46.784
414 26 1.689 23.450 46.730
415 26 1.774 21.602 48.583
416 24 0.033 23.317 48.568
417 27 0.072 21.569 50.467
418 28 1.827 23.381 50.414
419 24 1.754 21.547 52.199
420 28 0.061 23.423 52.289
421 28 -0.029 25.252 -0.012
422 26 1.867 26.921 0.060
423 27 1.845 25.157 1.861
424 27 0.051 27.073 1.795
425 27 0.054 25.200 3.607
426 24 1.911 26.974 3.614
427 25 1.846 25.174 5.352
428 25 -0.075 27.001 5.408
429 26 0.017 25.144 7.195
430 28 1.835 26.976 7.248
431 24 1.734 25.119 9.028
432 28 -0.020 26.990 8.951
433 26 0.002 25.198 10.745
434 28 1.817 27.010 10.800
435 28 1.726 25.181 12.547
436 25 -0.074 26.879 12.505
437 27 0.010 25.162 14.415
438 28 1.876 26.963 14.365
439 28 1.827 25.157 16.130
440 26 0.082 27.062 16.241
441 25 0.047 25.138 17.893
442 24 1.781 26.955 17.948
443 24 1.866 25.230 19.818
444 26 -0.004 27.030 19.798
445 25 -0.058 25.155 21.566
446 24 1.815 26.961 21.630
447 28 1.804 25.072 23.503
448 25 -0.028 27.040 23.408
449 26 -0.050 25.121 25.346
450 27 1.871 27.059 25.242
451 28 1.749 25.297 26.961
452 24 0.005 27.091 26.894
453 27 -0.038 25.117 28.823
454 28 1.784 27.031 28.780
455 25 1.734 25.165 30.487
456 24 0.010 26.920 30.571
457 25 0.013 25.181 32.364
458 27 1.780 27.023 32.512
459 28 1.850 25.231 34.159
460 27 0.000 27.082 34.159
461 26 0.005 25.202 36.033
462 27 1.796 26.916 35.839
463 25 1.759 25.259 37.807
464 28 0.008 26.979 37.845
465 25 -0.077 25.349 39.536
466 27 1.715 26.895 39.541
467 26 1.771 25.251 41.485
468 27 -0.004 27.042 41.351
469 27 0.058 25.329 43.286
470 24 1.727 27.007 43.204
471 27 1.813 25.158 44.980
472 27 -0.039 27.079 44.979
473 25 0.071 25.271 46.732
474 26 1.843 26.991 46.732
475 27 1.768 25.196 48.605
476 26 -0.042 26.948 48.612
477 24 0.050 25.196 50.566
478 28 1.809 27.044 50.382
479 27 1.886 25.172 52.263
480 24 -0.032 27.027 52.206
481 24 0.008 28.784 -0.002
482 24 1.664 30.637 -0.036
483 26 1.809 28.872 1.815
484 24 0.071 30.688 1.802
485 28 -0.086 28.738 3.642
486 26 1.774 30.597 3.583
487 28 1.761 28.811 5.385
488 27 -0.093 30.569 5.437
489 24 0.057 28.839 7.103
490 27 1.867 30.661 7.182
491 25 1.820 28.724 8.942
492 27 0.018 30.635 9.042
493 27 -0.043 28.707 10.771
494 27 1.783 30.624 10.813
495 27 1.841 28.718 12.542
496 27 -0.125 30.579 12.516
497 27 0.043 28.698 14.391
498 24 1.778 30.598 14.251
499 25 1.745 28.719 16.209
500 24 -0.033 30.597 16.178
501 27 0.008 28.923 17.973
502 26 1.768 30.611 18.033
503 26 1.746 28.791 19.743
504 27 -0.049 30.631 19.774
505 27 0.076 28.827 21.578
506 28 1.723 30.570 21.622
507 24 1.822 28.798 23.419
508 24 0.085 30.632 23.398
509 27 -0.003 28.808 25.124
510 24 1.783 30.510 25.218
511 24 1.777 28.786 27.008
512 27 0.036 30.608 26.921
513 26 0.018 28.731 28.813
514 24 1.886 30.568 28.797
515 27 1.810 28.732 30.577
516 25 0.079 30.605 30.661
517 25 0.091 28.800 32.355
518 27 1.785 30.622 32.413
519 26 1.856 28.736 34.204
520 27 -0.059 30.628 34.250
521 27 0.032 28.797 36.069
522 25 1.809 30.609 35.947
523 25 1.788 28.788 37.840
524 28 0.088 30.505 37.854
525 24 0.096 28.830 39.616
526 28 1.840 30.583 39.590
527 28 1.832 28.816 41.506
528 28 0.034 30.577 41.471
529 27 -0.028 28.844 43.170
530 25 1.823 30.591 43.102
531 26 1.737 28.822 45.039
532 24 0.011 30.599 44.939
533 28 -0.000 28.808 46.859
534 24 1.857 30.592 46.817
535 24 1.865 28.747 48.536
536 24 0.077 30.547 48.512
537 25 0.007 28.750 50.412
538 26 1.841 30.656 50.394
539 27 1.812 28.825 52.236
540 24 -0.042 30.560 52.246
541 27 -0.003 32.401 0.015
542 28 1.753 34.255 0.012
543 27 1.845 32.429 1.862
544 27 0.025 34.181 1.812
545 27 0.009 32.384 3.585
546 26 1.751 34.276 3.567
547 25 1.797 32.465 5.381
548 24 -0.011 34.318 5.382
549 24 0.064 32.424 7.259
550 24 1.767 34.197 7.260
551 27 1.857 32.360 8.945
552 26 0.011 34.203 8.994
553 28 -0.033 32.411 10.765
554 25 1.743 34.232 10.813
555 25 1.757 32.403 12.593
556 28 0.034 34.259 12.533
557 26 0.036 32.367 14.323
558 27 1.865 34.142 14.383
559 28 1.762 32.394 16.234
560 28 0.024 34.152 16.153
561 28 -0.019 32.392 18.012
562 26 1.810 34.241 17.937
563 25 1.802 32.334 19.921
564 27 0.039 34.296 19.803
565 24 0.054 32.349 21.610
566 25 1.852 34.144 21.674
567 27 1.868 32.384 23.441
568 26 0.000 34.160 23.344
569 26 0.047 32.397 25.194
570 25 1.832 34.242 25.108
571 24 1.845 32.430 26.900
572 24 -0.006 34.237 27.000
573 26 0.075 32.431 28.741
574 24 1.751 34.189 28.802
575 24 1.760 32.534 30.536
576 24 0.069 34.187 30.610
577 25 -0.000 32.381 32.433
578 24 1.901 34.141 32.371
579 27 1.851 32.514 34.273
580 25 -0.039 34.185 34.209
581 25 -0.007 32.360 35.955
582 28 1.765 34.216 35.926
583 25 1.809 32.517 37.889
584 25 0.023 34.150 37.819
585 27 -0.030 32.493 39.635
586 24 1.776 34.106 39.623
587 24 1.851 32.500 41.338
588 28 0.002 34.306 41.397
589 27 -0.027 32.459 43.242
590 25 1.844 34.194 43.202
591 28 1.792 32.425 44.964
592 28 -0.030 34.159 44.985
593 27 -0.024 32.373 46.793
594 27 1.813 34.164 46.851
595 28 1.795 32.298 48.575
596 28 -0.059 34.154 48.618
597 24 0.008 32.363 50.294
598 27 1.808 34.181 50.506
599 28 1.848 32.431 52.199
600 26 -0.008 34.277 52.119
601 24 -0.088 36.064 -0.057
602 28 1.780 37.818 -0.013
603 25 1.650 35.983 1.807
604 27 0.001 37.764 1.857
605 27 -0.002 36.006 3.478
606 24 1.677 37.735 3.684
607 27 1.804 35.960 5.363
608 24 0.015 37.782 5.333
609 25 -0.034 35.969 7.189
610 28 1.765 37.701 7.164
611 28 1.775 36.065 8.955
612 24 0.114 37.881 9.028
613 28 0.098 36.005 10.879
614 26 1.871 37.784 10.839
615 28 1.751 36.050 12.621
616 28 0.000 37.798 12.550
617 26 0.117 36.070 14.487
618 28 1.808 37.768 14.351
619 24 1.771 35.998 16.100
620 28 -0.009 37.839 16.188
621 27 -0.037 35.969 18.023
622 28 1.845 37.893 17.934
623 26 1.806 36.109 19.807
624 28 -0.040 37.843 19.763
625 25 -0.008 35.915 21.597
626 27 1.868 37.803 21.648
627 26 1.797 36.015 23.400
628 27 -0.033 37.821 23.421
629 27 -0.008 35.984 25.163
630 28 1.751 37.740 25.183
631 26 1.865 36.002 26.971
632 24 -0.028 37.779 27.018
633 25 -0.024 35.936 28.829
634 24 1.803 37.824 28.786
635 25 1.781 36.009 30.538
636 25 -0.020 37.784 30.471
637 25 0.063 36.060 32.441
638 24 1.721 37.772 32.348
639 24 1.827 36.014 34.187
640 26 -0.047 37.750 34.196
641 24 -0.018 35.980 35.961
642 27 1.779 37.769 35.952
643 28 1.833 35.913 37.705
644 28 0.023 37.750 37.814
645 27 0.059 35.913 39.684
646 24 1.732 37.793 39.545
647 27 1.928 36.055 41.394
648 28 -0.040 37.756 41.351
649 26 0.046 36.012 43.161
650 24 1.740 37.819 43.196
651 26 1.804 36.016 44.987
652 27 -0.081 37.816 44.936
653 24 -0.029 35.946 46.834
654 25 1.830 37.772 46.810
655 25 1.793 35.934 48.494
656 26 0.048 37.725 48.611
657 26 0.020 35.945 50.389
658 25 1.748 37.791 50.312
659 28 1.718 36.008 52.222
660 25 0.001 37.827 52.065
661 25 -0.038 39.580 -0.038
662 27 1.809 41.499 -0.015
663 25 1.823 39.534 1.691
664 25 -0.002 41.388 1.902
665 28 -0.066 39.626 3.643
666 24 1.841 41.398 3.618
667 26 1.809 39.625 5.310
668 24 -0.055 41.383 5.374
669 25 -0.026 39.623 7.235
670 24 1.847 41.399 7.231
671 27 1.794 39.654 9.042
672 27 0.037 41.460 9.027
673 24 0.020 39.524 10.736
674 27 1.789 41.384 10.765
675 27 1.852 39.568 12.602
676 25 0.018 41.452 12.655
677 24 0.067 39.586 14.378
678 28 1.753 41.359 14.361
679 25 1.808 39.690 16.206
680 24 0.015 41.413 16.234
681 25 0.024 39.600 17.949
682 28 1.822 41.367 17.953
683 28 1.831 39.606 19.777
684 28 0.010 41.364 19.727
685 27 -0.073 39.677 21.636
686 24 1.856 41.436 21.610
687 28 1.772 39.586 23.369
688 25 -0.051 41.374 23.355
689 28 0.005 39.633 25.183
690 26 1.777 41.445 25.172
691 25 1.733 39.689 27.022
692 27 0.098 41.381 26.934
693 25 0.036 39.502 28.805
694 25 1.829 41.375 28.770
695 26 1.837 39.589 30.596
696 28 0.047 41.442 30.541
697 24 0.012 39.586 32.423
698 28 1.803 41.395 32.445
699 26 1.825 39.614 34.254
700 28 -0.005 41.356 34.194
701 24 -0.020 39.510 36.028
702 26 1.826 41.445 35.957
703 25 1.858 39.621 37.749
704 28 0.015 41.406 37.820
705 28 0.010 39.588 39.612
706 25 1.797 41.338 39.606
707 26 1.943 39.617 41.454
708 27 -0.041 41.389 41.374
709 25 -0.030 39.599 43.167
710 25 1.802 41.397 43.132
711 27 1.888 39.590 44.998
712 25 0.090 41.421 44.964
713 26 -0.004 39.655 46.802
714 28 1.758 41.458 46.821
715 27 1.879 39.628 48.581
716 27 -0.028 41.383 48.539
717 26 0.018 39.614 50.356
718 25 1.780 41.376 50.419
719 28 1.723 39.514 52.186
720 25 -0.015 41.444 52.183
721 28 0.023 43.164 -0.014
722 24 1.709 45.034 -0.050
723 28 1.812 43.177 1.815
724 25 -0.001 45.022 1.811
725 24 0.036 43.196 3.649
726 28 1.877 45.079 3.678
727 24 1.788 43.217 5.367
728 27 -0.102 44.908 5.283
729 25 -0.063 43.271 7.238
730 25 1.831 44.991 7.140
731 27 1.837 43.214 8.896
732 27 -0.069 45.066 8.983
733 24 -0.083 43.298 10.806
734 26 1.817 44.943 10.762
735 27 1.783 43.182 12.537
736 25 -0.002 44.957 12.638
737 27 -0.002 43.163 14.492
738 26 1.760 45.053 14.357
739 24 1.841 43.182 16.221
740 27 0.037 44.929 16.196
741 28 -0.010 43.265 18.062
742 28 1.731 45.022 18.094
743 26 1.761 43.186 19.822
744 26 0.035 45.050 19.829
745 25 0.046 43.163 21.642
746 28 1.859 44.971 21.522
747 26 1.791 43.158 23.441
748 26 0.087 44.897 23.434
749 28 0.040 43.185 25.192
750 26 1.913 45.004 25.148
751 27 1.815 43.113 26.950
752 26 -0.100 45.055 26.984
753 25 0.040 43.220 28.781
754 25 1.763 44.988 28.716
755 25 1.783 43.202 30.593
756 28 0.006 44.979 30.723
757 24 -0.067 43.147 32.399
758 25 1.745 44.894 32.436
759 27 1.774 43.133 34.293
760 25 0.056 45.073 34.160
761 27 0.055 43.111 35.916
762 25 1.837 44.978 35.971
763 27 1.811 43.236 37.707
764 27 -0.018 45.057 37.856
765 25 0.014 43.228 39.754
766 26 1.810 45.034 39.658
767 27 1.777 43.121 41.396
768 28 -0.013 45.029 41.409
769 27 -0.001 43.231 43.233
770 25 1.820 45.017 43.209
771 28 1.839 43.188 44.992
772 24 0.068 44.997 45.006
773 27 -0.053 43.212 46.778
774 27 1.816 45.096 46.839
775 28 1.859 43.251 48.546
776 26 -0.018 44.948 48.624
777 28 0.075 43.259 50.333
778 24 1.834 45.034 50.442
779 28 1.780 43.122 52.165
780 26 0.075 44.943 52.211
781 25 -0.056 46.815 0.068
782 28 1.778 48.558 0.011
783 24 1.725 46.834 1.749
784 26 0.006 48.593 1.837
785 28 0.015 46.789 3.612
786 27 1.796 48.573 3.579
787 25 1.749 46.866 5.405
788 26 -0.033 48.612 5.388
789 24 -0.014 46.710 7.254
790 27 1.829 48.519 7.155
791 28 1.805 46.792 8.921
792 28 0.025 48.608 8.936
793 25 -0.034 46.816 10.837
794 26 1.865 48.587 10.807
795 24 1.738 46.773 12.662
796 27 0.049 48.635 12.539
797 27 0.055 46.834 14.409
798 26 1.824 48.540 14.356
799 26 1.798 46.785 16.247
800 28 0.093 48.648 16.181
801 24 -0.077 46.899 18.051
802 24 1.739 48.600 18.043
803 27 1.776 46.886 19.809
804 28 -0.046 48.541 19.792
805 26 -0.063 46.793 21.566
806 26 1.779 48.673 21.594
807 24 1.900 46.813 23.427
808 28 -0.024 48.531 23.428
809 25 -0.062 46.884 25.153
810 26 1.738 48.664 25.149
811 24 1.782 46.777 27.018
812 27 -0.015 48.584 27.048
813 25 -0.052 46.787 28.746
814 24 1.878 48.595 28.769
815 28 1.759 46.715 30.600
816 24 0.034 48.594 30.597
817 27 -0.081 46.737 32.491
818 25 1.859 48.760 32.456
819 28 1.842 46.926 34.315
820 26 -0.065 48.561 34.142
821 26 0.011 46.800 36.027
822 24 1.877 48.476 35.956
823 28 1.791 46.739 37.790
824 26 -0.022 48.562 37.798
825 27 0.088 46.883 39.669
826 26 1.871 48.588 39.731
827 27 1.830 46.817 41.360
828 26 0.023 48.660 41.457
829 28 -0.001 46.881 43.023
830 24 1.806 48.634 43.250
831 26 1.743 46.821 45.051
832 26 -0.008 48.576 44.963
833 27 0.074 46.738 46.762
834 27 1.853 48.447 46.895
835 26 1.762 46.708 48.679
836 26 -0.004 48.565 48.552
837 27 0.005 46.742 50.476
838 25 1.813 48.624 50.344
839 26 1.849 46.759 52.180
840 26 0.013 48.593 52.210
841 26 0.111 50.327 0.017
842 26 1.773 52.151 0.039
843 27 1.807 50.416 1.809
844 25 -0.025 52.162 1.782
845 26 0.062 50.398 3.639
846 24 1.747 52.138 3.586
847 24 1.797 50.423 5.423
848 26 -0.099 52.257 5.370
849 28 -0.018 50.353 7.229
850 24 1.704 52.175 7.153
851 25 1.770 50.343 8.966
852 28 0.038 52.221 8.961
853 26 0.047 50.377 10.805
854 27 1.802 52.240 10.861
855 28 1.616 50.388 12.564
856 26 -0.028 52.149 12.650
857 24 0.026 50.405 14.385
858 24 1.744 52.240 14.346
859 27 1.790 50.424 16.094
860 24 0.031 52.212 16.170
861 28 0.062 50.462 18.001
862 24 1.786 52.099 18.007
863 28 1.891 50.349 19.842
864 24 0.086 52.247 19.738
865 26 -0.076 50.379 21.512
866 28 1.863 52.200 21.662
867 24 1.753 50.258 23.394
868 27 0.045 52.188 23.326
869 25 0.033 50.457 25.202
870 24 1.857 52.124 25.168
871 25 1.747 50.332 26.942
872 28 0.097 52.206 26.976
873 27 0.016 50.344 28.853
874 28 1.849 52.148 28.844
875 26 1.691 50.396 30.572
876 27 -0.016 52.184 30.677
877 25 -0.072 50.333 32.457
878 28 1.803 52.207 32.352
879 24 1.759 50.418 34.183
880 25 0.005 52.076 34.170
881 24 0.051 50.386 36.060
882 27 1.874 52.166 35.960
883 26 1.763 50.386 37.875
884 27 0.038 52.251 37.769
885 25 0.037 50.434 39.469
886 26 1.797 52.235 39.498
887 24 1.757 50.443 41.493
888 25 0.075 52.177 41.462
889 25 -0.032 50.451 43.169
890 26 1.768 52.322 43.192
891 24 1.800 50.442 44.987
892 24 0.047 52.254 45.024
893 27 0.008 50.335 46.823
894 25 1.812 52.232 46.840
895 28 1.776 50.448 48.599
896 27 0.099 52.231 48.563
897 25 -0.010 50.434 50.389
898 26 1.894 52.244 50.393
899 26 1.772 50.427 52.221
900 27 0.044 52.311 52.154
901 24 3.556 0.020 0.047
902 26 5.388 1.879 0.074
903 25 5.327 -0.095 1.774
904 24 3.587 1.704 1.823
905 28 3.650 -0.003 3.572
906 28 5.505 1.867 3.618
907 27 5.347 0.066 5.363
908 24 3.577 1.720 5.419
909 27 3.536 -0.075 7.230
910 26 5.391 1.770 7.156
911 26 5.447 -0.030 9.053
912 25 3.592 1.776 9.002
913 24 3.660 0.014 10.834
914 27 5.406 1.775 10.874
915 25 5.461 -0.049 12.666
916 24 3.577 1.791 12.590
917 26 3.516 -0.046 14.411
918 28 5.439 1.763 14.433
919 24 5.449 0.002 16.141
920 27 3.602 1.861 16.243
921 27 3.661 0.023 18.005
922 27 5.373 1.892 18.048
923 27 5.426 0.043 19.837
924 26 3.712 1.765 19.814
925 27 3.669 0.017 21.593
926 25 5.353 1.835 21.537
927 25 5.408 0.066 23.385
928 25 3.540 1.797 23.457
929 25 3.645 -0.058 25.253
930 25 5.309 1.825 25.166
931 24 5.329 0.027 26.988
932 24 3.661 1.837 26.951
933 26 3.622 0.045 28.743
934 28 5.356 1.824 28.874
935 25 5.293 0.015 30.655
936 28 3.651 1.774 30.601
937 28 3.608 0.011 32.435
938 28 5.353 1.781 32.405
939 26 5.368 0.007 34.185
940 26 3.550 1.758 34.310
941 27 3.500 -0.081 36.021
942 25 5.417 1.781 36.036
943 25 5.395 -0.004 37.838
944 24 3.601 1.853 37.681
945 27 3.607 0.024 39.689
946 24 5.341 1.909 39.675
947 28 5.412 0.053 41.351
948 27 3.657 1.825 41.308
949 25 3.622 0.023 43.244
950 28 5.413 1.779 43.137
951 27 5.411 -0.016 44.994
952 27 3.609 1.774 44.951
953 24 3.597 -0.030 46.759
954 24 5.417 1.837 46.862
955 27 5.419 -0.111 48.588
956 25 3.545 1.813 48.581
957 27 3.671 -0.044 50.394
958 26 5.457 1.747 50.451
959 28 5.368 0.037 52.207
960 28 3.597 1.801 52.260
961 26 3.594 3.580 0.112
962 27 5.358 5.408 -0.069
963 25 5.303 3.607 1.740
964 28 3.565 5.430 1.839
965 25 3.567 3.588 3.548
966 25 5.432 5.406 3.589
967 28 5.416 3.629 5.366
968 27 3.568 5.348 5.374
969 27 3.600 3.610 7.184
970 27 5.306 5.376 7.170
971 27 5.383 3.580 8.983
972 24 3.620 5.490 8.955
973 28 3.640 3.615 10.823
974 25 5.429 5.296 10.757
975 28 5.430 3.636 12.604
976 25 3.614 5.303 12.552
977 25 3.683 3.537 14.370
978 25 5.384 5.389 14.338
979 25 5.361 3.698 16.263
980 25 3.639 5.373 16.163
981 28 3.622 3.655 18.045
982 28 5.345 5.444 18.034
983 25 5.459 3.535 19.811
984 26 3.649 5.474 19.803
985 25 3.661 3.537 21.558
986 28 5.333 5.339 21.560
987 27 5.377 3.607 23.389
988 25 3.557 5.341 23.396
989 27 3.599 3.567 25.126
990 28 5.378 5.384 25.323
991 24 5.404 3.593 26.993
992 28 3.626 5.356 27.072
993 24 3.576 3.590 28.772
994 27 5.453 5.439 28.770
995 25 5.339 3.571 30.584
996 27 3.620 5.403 30.635
997 25 3.565 3.638 32.447
998 28 5.451 5.352 32.386
999 27 5.433 3.559 34.150
1000 26 3.581 5.494 34.232
1001 25 3.643 3.663 36.032
1002 25 5.382 5.390 36.079
1003 27 5.393 3.584 37.779
1004 25 3.583 5.415 37.873
1005 24 3.651 3.584 39.650
1006 24 5.453 5.295 39.640
1007 26 5.440 3.654 41.319
1008 27 3.587 5.418 41.401
1009 25 3.644 3.604 43.193
1010 26 5.370 5.429 43.168
1011 25 5.340 3.625 45.063
1012 26 3.633 5.378 44.918
1013 27 3.561 3.536 46.754
1014 24 5.413 5.380 46.791
1015 24 5.355 3.557 48.528
1016 25 3.548 5.375 48.641
1017 25 3.567 3.559 50.452
1018 27 5.283 5.445 50.418
1019 25 5.389 3.685 52.157
1020 26 3.477 5.422 52.199
1021 24 3.609 7.221 -0.011
1022 24 5.376 9.030 -0.012
1023 24 5.463 7.149 1.786
1024 25 3.638 9.021 1.837
1025 26 3.628 7.169 3.598
1026 28 5.427 8.952 3.594
1027 27 5.389 7.264 5.425
1028 24 3.552 9.137 5.423
1029 26 3.611 7.140 7.217
1030 28 5.380 8.979 7.201
1031 25 5.444 7.206 8.943
1032 26 3.629 8.999 9.040
1033 25 3.548 7.165 10.803
1034 28 5.346 9.013 10.720
1035 25 5.427 7.144 12.624
1036 24 3.579 8.964 12.582
1037 24 3.660 7.224 14.488
1038 26 5.414 9.010 14.357
1039 27 5.383 7.214 16.174
1040 28 3.535 9.033 16.273
1041 24 3.622 7.219 17.964
1042 24 5.397 8.987 17.984
1043 24 5.378 7.161 19.824
1044 28 3.697 9.028 19.793
1045 26 3.607 7.236 21.587
1046 28 5.401 9.099 21.598
1047 27 5.340 7.221 23.312
1048 26 3.610 8.999 23.424
1049 24 3.679 7.163 25.103
1050 28 5.298 9.002 25.193
1051 26 5.349 7.282 26.919
1052 26 3.575 8.955 26.989
1053 27 3.652 7.279 28.785
1054 26 5.415 8.989 28.847
1055 24 5.456 7.215 30.561
1056 24 3.584 9.036 30.529
1057 24 3.574 7.217 32.384
1058 28 5.352 9.006 32.403
1059 28 5.475 7.248 34.099
1060 24 3.526 8.990 34.260
1061 25 3.586 7.224 36.043
1062 26 5.368 9.022 36.006
1063 26 5.493 7.209 37.793
1064 24 3.574 8.945 37.778
1065 25 3.617 7.249 39.613
1066 27 5.424 8.990 39.698
1067 24 5.464 7.205 41.365
1068 26 3.620 9.109 41.418
1069 26 3.540 7.183 43.100
1070 28 5.352 9.112 43.319
1071 28 5.405 7.204 45.033
1072 26 3.665 9.012 45.018
1073 26 3.599 7.167 46.762
1074 25 5.379 8.998 46.849
1075 24 5.360 7.226 48.581
1076 27 3.640 8.976 48.618
1077 26 3.595 7.260 50.360
1078 28 5.381 9.028 50.431
1079 27 5.413 7.221 52.243
1080 28 3.669 8.913 52.067
1081 26 3.657 10.764 0.021
1082 26 5.329 12.597 -0.052
1083 24 5.368 10.733 1.848
1084 27 3.558 12.536 1.786
1085 26 3.675 10.855 3.643
1086 27 5.357 12.569 3.701
1087 27 5.409 10.767 5.392
1088 27 3.604 12.650 5.415
1089 25 3.599 10.855 7.196
1090 28 5.450 12.614 7.131
1091 26 5.421 10.740 9.066
1092 27 3.551 12.584 8.928
1093 28 3.588 10.720 10.816
1094 25 5.438 12.547 10.757
1095 26 5.427 10.774 12.576
1096 24 3.572 12.562 12.605
1097 28 3.683 10.833 14.481
1098 26 5.403 12.570 14.411
1099 25 5.452 10.731 16.262
1100 26 3.655 12.592 16.190
1101 26 3.612 10.734 18.022
1102 28 5.445 12.529 18.083
1103 26 5.397 10.812 19.749
1104 27 3.600 12.538 19.934
1105 27 3.652 10.806 21.563
1106 27 5.407 12.619 21.670
1107 25 5.438 10.814 23.350
1108 28 3.607 12.727 23.419
1109 26 3.615 10.752 25.156
1110 25 5.388 12.638 25.226
1111 28 5.418 10.922 27.016
1112 26 3.593 12.536 26.965
1113 27 3.647 10.805 28.864
1114 27 5.396 12.604 28.796
1115 27 5.390 10.744 30.616
1116 25 3.619 12.631 30.683
1117 24 3.628 10.871 32.334