ITEM: TIMESTEP
0
ITEM: NUMBER OF ATOMS
16
ITEM: BOX BOUNDS pp pp pp
0.0 18.000000
0.0 18.000000
0.0 18.000000
ITEM: ATOMS id type x y z rc
1 6 10.6273 8.9942 5.2042 0.0000
2 6 9.8716 10.3035 5.7032 0.0000
3 6 8.2646 10.2636 12.3177 0.0000
4 6 7.5354 8.9735 12.8281 0.0000
5 6 8.3066 7.7250 12.2930 0.0000
6 6 9.7702 7.6992 12.7321 0.0000
7 1 11.3017 9.0005 5.8381 0.0000
8 1 10.1561 11.0584 6.5448 0.0000
9 1 7.8452 11.0894 12.6570 0.0000
10 1 7.8348 10.9370 11.4730 0.0000
11 1 6.6370 8.9830 13.4586 0.0000
12 1 6.6300 8.9537 12.2964 0.0000
13 1 7.8318 6.9406 12.7317 0.0000
14 1 7.8780 6.9509 11.4727 0.0000
15 1 10.1909 6.8540 13.5477 0.0000
16 1 10.0683 6.9028 12.2938 0.0000
ITEM: TIMESTEP
25
ITEM: NUMBER OF ATOMS
16
ITEM: BOX BOUNDS pp pp pp
0.0 18.000000
0.0 18.000000
0.0 18.000000
ITEM: ATOMS id type x y z rc
1 6 10.6498 8.9867 5.2880 0.0203
2 6 9.7718 10.2502 5.7619 0.0203
3 6 8.3852 10.1486 12.1348 0.0203
4 6 7.4303 9.0158 12.6233 0.0203
5 6 8.3093 7.7384 12.1419 0.0203
6 6 9.7431 7.8090 12.5915 0.0203
7 1 11.3567 8.9305 5.7733 0.0203
8 1 10.2171 11.0540 6.5413 0.0203
9 1 7.7744 11.0328 12.6144 0.0203
10 1 7.7799 11.0661 11.3923 0.0203
11 1 6.6902 9.0261 13.3821 0.0203
12 1 6.5851 8.9704 12.2148 0.0203
13 1 7.8502 6.9378 12.6706 0.0203
14 1 7.8071 6.9144 11.3446 0.0203
15 1 10.2402 6.9822 13.4653 0.0203
16 1 10.1779 6.9295 12.2666 0.0203
ITEM: TIMESTEP
50
ITEM: NUMBER OF ATOMS
16
ITEM: BOX BOUNDS pp pp pp
0.0 18.000000
0.0 18.000000
0.0 18.000000
ITEM: ATOMS id type x y z rc
1 6 10.6142 9.0322 5.3511 0.0407
2 6 9.8315 10.2532 5.9163 0.0407
3 6 8.2173 10.3362 12.1101 0.0407
4 6 7.5687 9.0519 12.5621 0.0407
5 6 8.2802 7.7018 12.0754 0.0407
6 6 9.6630 7.8233 12.6219 0.0407
7 1 11.3348 8.9510 5.8339 0.0407
8 1 10.2652 10.9807 6.6389 0.0407
9 1 7.8925 11.0683 12.4945 0.0407
10 1 7.8518 11.1237 11.3707 0.0407
11 1 6.6000 8.9691 13.3397 0.0407
12 1 6.5633 8.9709 12.2479 0.0407
13 1 7.8100 6.9912 12.5371 0.0407
14 1 7.8627 6.9075 11.4070 0.0407
15 1 10.0823 6.9257 13.4446 0.0407
16 1 10.1730 6.9372 12.0986 0.0407
ITEM: TIMESTEP
75
ITEM: NUMBER OF ATOMS
16
ITEM: BOX BOUNDS pp pp pp
0.0 18.000000
0.0 18.000000
0.0 18.000000
ITEM: ATOMS id type x y z rc
1 6 10.6714 8.9431 5.4134 0.0610
2 6 9.7111 10.2312 5.9313 0.0610
3 6 8.2700 10.2522 12.0373 0.0610
4 6 7.4742 8.9788 12.5623 0.0610
5 6 8.2279 7.6967 12.0502 0.0610
6 6 9.6860 7.7269 12.4669 0.0610
7 1 11.3906 8.9597 5.9825 0.0610
8 1 10.1267 10.9700 6.7626 0.0610
9 1 7.7722 11.0162 12.5328 0.0610
10 1 7.9064 11.0224 11.2798 0.0610
11 1 6.6165 9.0596 13.2634 0.0610
12 1 6.6205 8.9899 12.0640 0.0610
13 1 7.8466 6.8177 12.5025 0.0610
14 1 7.7889 6.9769 11.3064 0.0610
15 1 10.1257 6.9984 13.2910 0.0610
16 1 10.1380 7.0039 12.1848 0.0610
ITEM: TIMESTEP
100
ITEM: NUMBER OF ATOMS
16
ITEM: BOX BOUNDS pp pp pp
0.0 18.000000
0.0 18.000000
0.0 18.000000
ITEM: ATOMS id type x y z rc
1 6 10.6570 9.0590 5.4508 0.0814
2 6 9.8034 10.2833 5.9867 0.0814
3 6 8.3136 10.2759 11.9580 0.0814
4 6 7.6371 8.9254 12.4900 0.0814
5 6 8.2026 7.6692 11.9632 0.0814
6 6 9.6454 7.6837 12.4800 0.0814
7 1 11.3317 9.0339 5.8980 0.0814
8 1 10.2289 11.0482 6.8292 0.0814
9 1 7.7885 11.0533 12.4723 0.0814
10 1 7.8278 11.0873 11.2951 0.0814
11 1 6.6083 9.0337 13.2407 0.0814
12 1 6.6265 8.9182 12.0060 0.0814
13 1 7.8169 6.9436 12.3738 0.0814
14 1 7.8001 6.9106 11.2595 0.0814
15 1 10.1197 6.8682 13.2090 0.0814
16 1 10.2778 6.9818 12.0435 0.0814
ITEM: TIMESTEP
125
ITEM: NUMBER OF ATOMS
16
ITEM: BOX BOUNDS pp pp pp
0.0 18.000000
0.0 18.000000
0.0 18.000000
ITEM: ATOMS id type x y z rc
1 6 10.6971 8.9337 5.6047 0.1017
2 6 9.8223 10.2670 6.0755 0.1017
3 6 8.3383 10.3388 11.9124 0.1017
4 6 7.5115 9.0240 12.4332 0.1017
5 6 8.2762 7.7554 11.9368 0.1017
6 6 9.6942 7.7176 12.3630 0.1017
7 1 11.4179 9.0612 6.0442 0.1017
8 1 10.2702 10.9897 6.9128 0.1017
9 1 7.7868 11.0519 12.2543 0.1017
10 1 7.8129 11.0523 11.1248 0.1017
11 1 6.6361 9.0429 13.1349 0.1017
12 1 6.5107 8.9511 11.9532 0.1017
13 1 7.9177 6.8723 12.3764 0.1017
14 1 7.8495 7.0118 11.1267 0.1017
15 1 10.0802 7.0275 13.0646 0.1017
16 1 10.1936 6.8879 11.9442 0.1017
ITEM: TIMESTEP
150
ITEM: NUMBER OF ATOMS
16
ITEM: BOX BOUNDS pp pp pp
0.0 18.000000
0.0 18.000000
0.0 18.000000
ITEM: ATOMS id type x y z rc
1 6 10.5988 9.0181 5.6986 0.1220
2 6 9.8568 10.3359 6.1607 0.1220
3 6 8.3185 10.2678 11.8062 0.1220
4 6 7.5745 9.0913 12.3626 0.1220
5 6 8.2445 7.7375 11.8416 0.1220
6 6 9.7124 7.7729 12.2812 0.1220
7 1 11.3714 9.0466 6.1805 0.1220
8 1 10.1667 11.0331 6.9496 0.1220
9 1 7.7951 11.0821 12.3288 0.1220
10 1 7.8425 11.1194 11.1377 0.1220
11 1 6.6172 9.0512 13.1043 0.1220
12 1 6.5938 8.9867 11.9233 0.1220
13 1 7.8290 6.9209 12.3204 0.1220
14 1 7.8090 6.9634 11.0652 0.1220
15 1 10.2417 7.0364 13.0948 0.1220
16 1 10.2724 7.0587 11.8853 0.1220
ITEM: TIMESTEP
175
ITEM: NUMBER OF ATOMS
16
ITEM: BOX BOUNDS pp pp pp
0.0 18.000000
0.0 18.000000
0.0 18.000000
ITEM: ATOMS id type x y z rc
1 6 10.6910 9.0449 5.8118 0.1424
2 6 9.9185 10.2153 6.2391 0.1424
3 6 8.2827 10.1848 11.7222 0.1424
4 6 7.5170 9.0232 12.2100 0.1424
5 6 8.2996 7.7207 11.8187 0.1424
6 6 9.7444 7.7436 12.2455 0.1424
7 1 11.4011 9.0025 6.2405 0.1424
8 1 10.2417 11.0313 7.0674 0.1424
9 1 7.8205 11.0340 12.1253 0.1424
10 1 7.7601 11.0623 11.0419 0.1424
11 1 6.5299 8.8885 13.0100 0.1424
12 1 6.6210 9.0030 11.9143 0.1424
13 1 7.7519 6.9610 12.2174 0.1424
14 1 7.8942 6.9419 10.9980 0.1424
15 1 10.1406 6.9103 13.0110 0.1424
16 1 10.1985 6.9460 11.8200 0.1424
ITEM: TIMESTEP
200
ITEM: NUMBER OF ATOMS
16
ITEM: BOX BOUNDS pp pp pp
0.0 18.000000
0.0 18.000000
0.0 18.000000
ITEM: ATOMS id type x y z rc
1 6 10.7136 8.9693 5.7236 0.1627
2 6 9.7998 10.3033 6.2830 0.1627
3 6 8.1998 10.1571 11.7485 0.1627
4 6 7.5975 8.8899 12.2350 0.1627
5 6 8.3182 7.7212 11.6773 0.1627
6 6 9.7084 7.6743 12.2360 0.1627
7 1 11.3080 9.0435 6.3142 0.1627
8 1 10.1447 11.1031 7.1521 0.1627
9 1 7.7871 11.0581 12.1382 0.1627
10 1 7.8847 11.0353 10.9725 0.1627
11 1 6.6472 8.9685 12.9133 0.1627
12 1 6.6473 9.0030 11.8088 0.1627
13 1 7.7503 6.8931 12.1088 0.1627
14 1 7.8091 7.0315 10.9755 0.1627
15 1 10.1470 7.0687 12.8326 0.1627
16 1 10.1608 6.9617 11.7410 0.1627
ITEM: TIMESTEP
225
ITEM: NUMBER OF ATOMS
16
ITEM: BOX BOUNDS pp pp pp
0.0 18.000000
0.0 18.000000
0.0 18.000000
ITEM: ATOMS id type x y z rc
1 6 10.5726 9.1004 5.9033 0.1831
2 6 9.7916 10.2899 6.3307 0.1831
3 6 8.2185 10.2514 11.6842 0.1831
4 6 7.5346 8.9431 12.0811 0.1831
5 6 8.2932 7.6857 11.6180 0.1831
6 6 9.7489 7.7548 12.1447 0.1831
7 1 11.4124 8.9229 6.3099 0.1831
8 1 10.1639 11.0363 7.1153 0.1831
9 1 7.7991 11.0269 12.1414 0.1831
10 1 7.7997 11.1031 10.8303 0.1831
11 1 6.5830 8.9452 12.8622 0.1831
12 1 6.6082 8.9369 11.5990 0.1831
13 1 7.8004 7.0202 12.1102 0.1831
14 1 7.8414 7.0304 10.9383 0.1831
15 1 10.2329 6.9631 12.8249 0.1831
16 1 10.2317 6.8889 11.7004 0.1831
ITEM: TIMESTEP
250
ITEM: NUMBER OF ATOMS
16
ITEM: BOX BOUNDS pp pp pp
0.0 18.000000
0.0 18.000000
0.0 18.000000
ITEM: ATOMS id type x y z rc
1 6 10.5951 9.0420 5.9358 0.2034
2 6 9.8717 10.2018 6.4463 0.2034
3 6 8.2242 10.3004 11.5149 0.2034
4 6 7.5446 8.9548 12.0329 0.2034
5 6 8.2973 7.7557 11.5987 0.2034
6 6 9.7277 7.7687 12.0732 0.2034
7 1 11.3722 8.9831 6.3301 0.2034
8 1 10.2176 11.0495 7.2829 0.2034
9 1 7.8572 11.0562 11.9798 0.2034
10 1 7.7433 11.0614 10.7191 0.2034
11 1 6.6534 9.0464 12.8216 0.2034
12 1 6.6155 9.0480 11.6816 0.2034
13 1 7.8791 6.9722 11.9239 0.2034
14 1 7.8236 7.0762 10.8207 0.2034
15 1 10.1863 6.9308 12.7403 0.2034
16 1 10.1612 6.9276 11.6961 0.2034
ITEM: TIMESTEP
275
ITEM: NUMBER OF ATOMS
16
ITEM: BOX BOUNDS pp pp pp
0.0 18.000000
0.0 18.000000
0.0 18.000000
ITEM: ATOMS id type x y z rc
1 6 10.6371 8.9666 6.0709 0.2237
2 6 9.8961 10.2726 6.4629 0.2237
3 6 8.1873 10.2784 11.4924 0.2237
4 6 7.5737 8.9969 11.9825 0.2237
5 6 8.2482 7.7388 11.3612 0.2237
6 6 9.6876 7.6483 11.9810 0.2237
7 1 11.3297 8.9306 6.5094 0.2237
8 1 10.1965 11.0609 7.3396 0.2237
9 1 7.8220 11.0517 11.8368 0.2237
10 1 7.8792 11.0282 10.7470 0.2237
11 1 6.6669 8.9726 12.6952 0.2237
12 1 6.6055 9.0593 11.4410 0.2237
13 1 7.8214 6.9442 11.9633 0.2237
14 1 7.7835 7.0272 10.8634 0.2237
15 1 10.1841 6.9502 12.7091 0.2237
16 1 10.1849 6.9346 11.5929 0.2237
ITEM: TIMESTEP
300
ITEM: NUMBER OF ATOMS
16
ITEM: BOX BOUNDS pp pp pp
0.0 18.000000
0.0 18.000000
0.0 18.000000
ITEM: ATOMS id type x y z rc
1 6 10.7112 8.9500 6.1453 0.2441
2 6 9.7758 10.2056 6.6301 0.2441
3 6 8.3198 10.3179 11.3880 0.2441
4 6 7.5552 9.0594 11.9106 0.2441
5 6 8.2000 7.8386 11.4709 0.2441
6 6 9.7657 7.7272 11.8588 0.2441
7 1 11.3928 8.9725 6.6544 0.2441
8 1 10.1353 11.0090 7.2933 0.2441
9 1 7.8243 11.1068 11.8211 0.2441
10 1 7.7787 11.0407 10.5825 0.2441
11 1 6.6197 8.9958 12.6780 0.2441
12 1 6.6517 9.0783 11.4318 0.2441
13 1 7.8306 6.9670 11.8700 0.2441
14 1 7.8369 6.9526 10.6915 0.2441
15 1 10.2364 6.9941 12.6066 0.2441
16 1 10.2584 6.9599 11.5301 0.2441
ITEM: TIMESTEP
325
ITEM: NUMBER OF ATOMS
16
ITEM: BOX BOUNDS pp pp pp
0.0 18.000000
0.0 18.000000
0.0 18.000000
ITEM: ATOMS id type x y z rc
1 6 10.6773 9.0464 6.1622 0.2644
2 6 9.9131 10.2494 6.6200 0.2644
3 6 8.2995 10.2346 11.3059 0.2644
4 6 7.4841 8.9614 11.8284 0.2644
5 6 8.3083 7.8464 11.3080 0.2644
6 6 9.7597 7.8075 11.9135 0.2644
7 1 11.3882 9.0175 6.5692 0.2644
8 1 10.1429 11.0426 7.4568 0.2644
9 1 7.8564 11.0116 11.7766 0.2644
10 1 7.8411 11.0407 10.6093 0.2644
11 1 6.6590 9.0127 12.6196 0.2644
12 1 6.6237 9.0585 11.4014 0.2644
13 1 7.7996 6.9390 11.6887 0.2644
14 1 7.8744 6.9456 10.6051 0.2644
15 1 10.1402 6.9960 12.5281 0.2644
16 1 10.3050 6.9684 11.4449 0.2644
ITEM: TIMESTEP
350
ITEM: NUMBER OF ATOMS
16
ITEM: BOX BOUNDS pp pp pp
0.0 18.000000
0.0 18.000000
0.0 18.000000
ITEM: ATOMS id type x y z rc
1 6 10.6200 8.9828 6.2027 0.2847
2 6 9.9029 10.2223 6.6691 0.2847
3 6 8.2896 10.3479 11.3029 0.2847
4 6 7.5266 9.0299 11.7614 0.2847
5 6 8.2858 7.6965 11.2533 0.2847
6 6 9.6721 7.6619 11.6663 0.2847
7 1 11.3485 9.0400 6.7309 0.2847
8 1 10.2000 11.0993 7.4532 0.2847
9 1 7.8186 11.0188 11.5988 0.2847
10 1 7.8699 11.0234 10.4471 0.2847
11 1 6.6655 8.9744 12.5080 0.2847
12 1 6.5878 9.1010 11.2527 0.2847
13 1 7.8597 6.9286 11.7629 0.2847
14 1 7.7689 6.8524 10.5219 0.2847
15 1 10.1328 6.8873 12.5401 0.2847
16 1 10.1296 6.9504 11.3950 0.2847
ITEM: TIMESTEP
375
ITEM: NUMBER OF ATOMS
16
ITEM: BOX BOUNDS pp pp pp
0.0 18.000000
0.0 18.000000
0.0 18.000000
ITEM: ATOMS id type x y z rc
1 6 10.6201 8.9822 6.2989 0.3051
2 6 9.8688 10.3453 6.8228 0.3051
3 6 8.3182 10.3625 11.2176 0.3051
4 6 7.5123 8.9797 11.6880 0.3051
5 6 8.2666 7.7807 11.2383 0.3051
6 6 9.8025 7.7736 11.7749 0.3051
7 1 11.2674 9.0164 6.7486 0.3051
8 1 10.2203 11.0569 7.5644 0.3051
9 1 7.8063 11.0840 11.5936 0.3051
10 1 7.7952 11.0631 10.4887 0.3051
11 1 6.7239 9.0325 12.4266 0.3051
12 1 6.6646 9.0386 11.1693 0.3051
13 1 7.7614 6.8795 11.6012 0.3051
14 1 7.7809 6.9930 10.3423 0.3051
15 1 10.2337 6.9601 12.3713 0.3051
16 1 10.1213 6.8958 11.1777 0.3051
ITEM: TIMESTEP
400
ITEM: NUMBER OF ATOMS
16
ITEM: BOX BOUNDS pp pp pp
0.0 18.000000
0.0 18.000000
0.0 18.000000
ITEM: ATOMS id type x y z rc
1 6 10.6151 9.0690 6.3494 0.3254
2 6 9.7993 10.3007 6.9495 0.3254
3 6 8.4111 10.3305 11.1040 0.3254
4 6 7.4868 9.0236 11.5847 0.3254
5 6 8.3390 7.6002 11.0832 0.3254
6 6 9.6899 7.7317 11.5339 0.3254
7 1 11.4277 9.0408 6.9373 0.3254
8 1 10.2152 10.9793 7.6967 0.3254
9 1 7.8065 10.9957 11.5237 0.3254
10 1 7.7941 11.0741 10.3224 0.3254
11 1 6.5988 8.9647 12.3880 0.3254
12 1 6.6109 8.9701 11.0825 0.3254
13 1 7.8362 6.9299 11.5863 0.3254
14 1 7.9236 6.9041 10.3578 0.3254
15 1 10.2772 6.9195 12.4910 0.3254
16 1 10.2025 6.8910 11.2323 0.3254
ITEM: TIMESTEP
425
ITEM: NUMBER OF ATOMS
16
ITEM: BOX BOUNDS pp pp pp
0.0 18.000000
0.0 18.000000
0.0 18.000000
ITEM: ATOMS id type x y z rc
1 6 10.6175 8.9848 6.5149 0.3458
2 6 9.7900 10.3146 6.9966 0.3458
3 6 8.3389 10.3412 11.0241 0.3458
4 6 7.4776 8.9715 11.5280 0.3458
5 6 8.2916 7.7146 11.0523 0.3458
6 6 9.7387 7.7199 11.5426 0.3458
7 1 11.4221 8.9521 6.9543 0.3458
8 1 10.2315 11.0778 7.6681 0.3458
9 1 7.8394 10.9659 11.3772 0.3458
10 1 7.8108 11.1032 10.2613 0.3458
11 1 6.6815 8.9942 12.2236 0.3458
12 1 6.5754 9.0533 11.0982 0.3458
13 1 7.8369 6.9610 11.4296 0.3458
14 1 7.8058 6.9922 10.2521 0.3458
15 1 10.1720 6.9700 12.3085 0.3458
16 1 10.1426 6.9455 11.1482 0.3458
ITEM: TIMESTEP
450
ITEM: NUMBER OF ATOMS
16
ITEM: BOX BOUNDS pp pp pp
0.0 18.000000
0.0 18.000000
0.0 18.000000
ITEM: ATOMS id type x y z rc
1 6 10.6028 8.9632 6.4803 0.3661
2 6 9.7425 10.3066 7.0539 0.3661
3 6 8.2668 10.2567 11.0353 0.3661
4 6 7.4842 9.0385 11.3732 0.3661
5 6 8.1972 7.8361 10.9966 0.3661
6 6 9.6689 7.6761 11.4025 0.3661
7 1 11.3984 8.9633 7.0899 0.3661
8 1 10.1563 11.0732 7.7118 0.3661
9 1 7.8461 10.9852 11.4100 0.3661
10 1 7.8607 11.0650 10.2214 0.3661
11 1 6.6396 8.9116 12.2786 0.3661
12 1 6.5758 9.0470 10.9776 0.3661
13 1 7.8093 6.9318 11.4079 0.3661
14 1 7.8214 6.9816 10.2017 0.3661
15 1 10.2155 6.9373 12.2074 0.3661
16 1 10.2634 7.0012 11.0005 0.3661
ITEM: TIMESTEP
475
ITEM: NUMBER OF ATOMS
16
ITEM: BOX BOUNDS pp pp pp
0.0 18.000000
0.0 18.000000
0.0 18.000000
ITEM: ATOMS id type x y z rc
1 6 10.5031 9.0937 6.6502 0.3864
2 6 9.7871 10.3590 7.0771 0.3864
3 6 8.2242 10.2762 10.8526 0.3864
4 6 7.4274 8.9540 11.4374 0.3864
5 6 8.3145 7.7451 10.8280 0.3864
6 6 9.5994 7.7229 11.4153 0.3864
7 1 11.3423 9.0224 7.0401 0.3864
8 1 10.2350 11.2203 7.8303 0.3864
9 1 7.7652 11.0819 11.3485 0.3864
10 1 7.8154 11.0218 10.1249 0.3864
11 1 6.6943 9.0444 12.1221 0.3864
12 1 6.6757 9.0565 10.9877 0.3864
13 1 7.8489 7.0451 11.3444 0.3864
14 1 7.7651 6.9603 10.1224 0.3864
15 1 10.2219 6.9610 12.0868 0.3864
16 1 10.1630 6.9650 11.0036 0.3864
ITEM: TIMESTEP
500
ITEM: NUMBER OF ATOMS
16
ITEM: BOX BOUNDS pp pp pp
0.0 18.000000
0.0 18.000000
0.0 18.000000
ITEM: ATOMS id type x y z rc
1 6 10.6000 8.9385 6.6865 0.4068
2 6 9.8211 10.3054 7.1324 0.4068
3 6 8.2955 10.1836 10.8158 0.4068
4 6 7.4791 8.9395 11.3810 0.4068
5 6 8.3056 7.6541 10.8309 0.4068
6 6 9.7645 7.7490 11.2226 0.4068
7 1 11.3304 8.9917 7.0558 0.4068
8 1 10.0741 11.0915 7.9638 0.4068
9 1 7.9009 11.0071 11.2240 0.4068
10 1 7.8405 11.0035 10.0623 0.4068
11 1 6.5908 8.9958 12.0621 0.4068
12 1 6.6292 9.0648 10.9061 0.4068
13 1 7.7141 6.9444 11.3295 0.4068
14 1 7.8271 7.0519 10.0702 0.4068
15 1 10.2221 6.9124 12.1760 0.4068
16 1 10.1743 6.9032 10.9028 0.4068
ITEM: TIMESTEP
525
ITEM: NUMBER OF ATOMS
16
ITEM: BOX BOUNDS pp pp pp
0.0 18.000000
0.0 18.000000
0.0 18.000000
ITEM: ATOMS id type x y z rc
1 6 10.5664 9.0189 6.7708 0.4271
2 6 9.7722 10.2468 7.2073 0.4271
3 6 8.3134 10.3086 10.8034 0.4271
4 6 7.5496 8.9737 11.2569 0.4271
5 6 8.2952 7.7727 10.7621 0.4271
6 6 9.7643 7.6844 11.2529 0.4271
7 1 11.5010 9.0437 7.2216 0.4271
8 1 10.1100 11.0786 8.0295 0.4271
9 1 7.7187 11.1309 11.2040 0.4271
10 1 7.8141 11.0342 10.0011 0.4271
11 1 6.5574 9.0381 12.0480 0.4271
12 1 6.5330 9.0162 10.8365 0.4271
13 1 7.7654 6.9268 11.2840 0.4271
14 1 7.8124 6.9770 9.8900 0.4271
15 1 10.0738 6.9193 11.8691 0.4271
16 1 10.2373 6.8839 10.7307 0.4271
ITEM: TIMESTEP
550
ITEM: NUMBER OF ATOMS
16
ITEM: BOX BOUNDS pp pp pp
0.0 18.000000
0.0 18.000000
0.0 18.000000
ITEM: ATOMS id type x y z rc
1 6 10.5707 8.9985 6.8077 0.4475
2 6 9.7215 10.2543 7.2895 0.4475
3 6 8.2204 10.2765 10.7892 0.4475
4 6 7.5860 9.0061 11.2426 0.4475
5 6 8.2276 7.7905 10.7035 0.4475
6 6 9.7314 7.7768 11.1657 0.4475
7 1 11.4036 9.0549 7.1973 0.4475
8 1 10.1822 11.0834 8.1101 0.4475
9 1 7.8036 11.1524 11.0323 0.4475
10 1 7.7868 11.1197 10.0232 0.4475
11 1 6.6014 9.0135 11.9938 0.4475
12 1 6.6172 9.0820 10.8304 0.4475
13 1 7.8613 6.8617 11.1571 0.4475
14 1 7.8723 6.9694 9.9662 0.4475
15 1 10.2084 6.9021 11.9738 0.4475
16 1 10.2250 7.0391 10.6865 0.4475
ITEM: TIMESTEP
575
ITEM: NUMBER OF ATOMS
16
ITEM: BOX BOUNDS pp pp pp
0.0 18.000000
0.0 18.000000
0.0 18.000000
ITEM: ATOMS id type x y z rc
1 6 10.6107 8.9861 6.9100 0.4678
2 6 9.7502 10.2322 7.3788 0.4678
3 6 8.3150 10.3084 10.6067 0.4678
4 6 7.5398 9.0233 11.1006 0.4678
5 6 8.3125 7.7470 10.6482 0.4678
6 6 9.6916 7.7516 11.1260 0.4678
7 1 11.3488 8.9394 7.5158 0.4678
8 1 10.1558 11.0781 8.0723 0.4678
9 1 7.8120 11.0626 11.1067 0.4678
10 1 7.8493 10.9836 9.8194 0.4678
11 1 6.6063 9.0630 11.8706 0.4678
12 1 6.6419 9.0261 10.6341 0.4678
13 1 7.8528 6.8587 10.9937 0.4678
14 1 7.8605 6.9712 9.9090 0.4678
15 1 10.1961 7.0197 11.8354 0.4678
16 1 10.1309 6.9773 10.5622 0.4678
ITEM: TIMESTEP
600
ITEM: NUMBER OF ATOMS
16
ITEM: BOX BOUNDS pp pp pp
0.0 18.000000
0.0 18.000000
0.0 18.000000
ITEM: ATOMS id type x y z rc
1 6 10.5479 8.9716 7.0168 0.4881
2 6 9.7919 10.2455 7.4561 0.4881
3 6 8.2826 10.3344 10.5313 0.4881
4 6 7.5416 9.0482 11.0408 0.4881
5 6 8.2654 7.7022 10.4952 0.4881
6 6 9.7894 7.7236 11.0984 0.4881
7 1 11.3198 9.0461 7.3922 0.4881
8 1 10.1203 11.0639 8.2042 0.4881
9 1 7.8032 11.0109 11.0332 0.4881
10 1 7.8878 11.1136 9.8388 0.4881
11 1 6.5884 9.0414 11.8351 0.4881
12 1 6.6055 9.0647 10.6589 0.4881
13 1 7.8245 6.9538 11.0490 0.4881
14 1 7.7715 6.9201 9.7772 0.4881
15 1 10.2263 6.9050 11.8345 0.4881
16 1 10.1599 7.0068 10.6633 0.4881
ITEM: TIMESTEP
625
ITEM: NUMBER OF ATOMS
16
ITEM: BOX BOUNDS pp pp pp
0.0 18.000000
0.0 18.000000
0.0 18.000000
ITEM: ATOMS id type x y z rc
1 6 10.5962 9.0574 7.0628 0.5085
2 6 9.7611 10.2852 7.5051 0.5085
3 6 8.3262 10.2942 10.4331 0.5085
4 6 7.5923 8.9993 10.9464 0.5085
5 6 8.2922 7.7461 10.3980 0.5085
6 6 9.6788 7.7568 11.0661 0.5085
7 1 11.4044 9.0021 7.3963 0.5085
8 1 10.1588 10.9760 8.3053 0.5085
9 1 7.8335 11.0302 10.9252 0.5085
10 1 7.8289 11.0313 9.7188 0.5085
11 1 6.7803 9.0077 11.7398 0.5085
12 1 6.6866 8.9682 10.5562 0.5085
13 1 7.6946 6.9385 10.8923 0.5085
14 1 7.8660 6.9773 9.6375 0.5085
15 1 10.2306 6.9268 11.7289 0.5085
16 1 10.2255 6.9219 10.5446 0.5085
ITEM: TIMESTEP
650
ITEM: NUMBER OF ATOMS
16
ITEM: BOX BOUNDS pp pp pp
0.0 18.000000
0.0 18.000000
0.0 18.000000
ITEM: ATOMS id type x y z rc
1 6 10.5967 8.9420 7.1028 0.5288
2 6 9.8667 10.2124 7.5807 0.5288
3 6 8.1988 10.3027 10.4183 0.5288
4 6 7.5056 8.9453 10.8969 0.5288
5 6 8.2769 7.7517 10.4145 0.5288
6 6 9.6672 7.7211 10.7999 0.5288
7 1 11.2425 8.9817 7.5589 0.5288
8 1 10.1965 11.1110 8.4052 0.5288
9 1 7.9143 11.1735 10.8760 0.5288
10 1 7.8814 11.0906 9.6132 0.5288
11 1 6.5966 8.9848 11.7705 0.5288
12 1 6.6404 9.0773 10.3824 0.5288
13 1 7.8048 6.9155 10.8320 0.5288
14 1 7.8820 6.9064 9.6703 0.5288
15 1 10.1242 6.9826 11.5745 0.5288
16 1 10.2319 6.9340 10.4439 0.5288
ITEM: TIMESTEP
675
ITEM: NUMBER OF ATOMS
16
ITEM: BOX BOUNDS pp pp pp
0.0 18.000000
0.0 18.000000
0.0 18.000000
ITEM: ATOMS id type x y z rc
1 6 10.5642 9.0018 7.2144 0.5492
2 6 9.7512 10.2499 7.7095 0.5492
3 6 8.3092 10.1827 10.3032 0.5492
4 6 7.4677 8.9383 10.9079 0.5492
5 6 8.1782 7.7901 10.3774 0.5492
6 6 9.6738 7.7020 10.8707 0.5492
7 1 11.3518 8.9028 7.5403 0.5492
8 1 10.2219 10.9395 8.3671 0.5492
9 1 7.7682 11.0238 10.7049 0.5492
10 1 7.8569 11.0582 9.5083 0.5492
11 1 6.6593 9.0481 11.5032 0.5492
12 1 6.6620 8.9764 10.4351 0.5492
13 1 7.7490 6.9398 10.7159 0.5492
14 1 7.8238 6.8894 9.5590 0.5492
15 1 10.1364 6.9954 11.6633 0.5492
16 1 10.1734 6.9755 10.3569 0.5492
ITEM: TIMESTEP
700
ITEM: NUMBER OF ATOMS
16
ITEM: BOX BOUNDS pp pp pp
0.0 18.000000
0.0 18.000000
0.0 18.000000
ITEM: ATOMS id type x y z rc
1 6 10.5572 9.0493 7.3182 0.5695
2 6 9.8358 10.2120 7.8091 0.5695
3 6 8.2365 10.2164 10.2144 0.5695
4 6 7.5241 9.0116 10.7479 0.5695
5 6 8.1852 7.7601 10.2320 0.5695
6 6 9.7952 7.7575 10.7417 0.5695
7 1 11.3644 9.0516 7.6736 0.5695
8 1 10.2049 11.0828 8.4701 0.5695
9 1 7.7763 10.9416 10.6335 0.5695
10 1 7.8469 11.0245 9.4854 0.5695
11 1 6.6725 8.9909 11.3859 0.5695
12 1 6.6381 9.0249 10.2688 0.5695
13 1 7.8298 7.0056 10.6952 0.5695
14 1 7.8294 6.9692 9.4443 0.5695
15 1 10.2218 6.9114 11.5856 0.5695
16 1 10.2632 6.9081 10.2786 0.5695
ITEM: TIMESTEP
725
ITEM: NUMBER OF ATOMS
16
ITEM: BOX BOUNDS pp pp pp
0.0 18.000000
0.0 18.000000
0.0 18.000000
ITEM: ATOMS id type x y z rc
1 6 10.5470 9.0115 7.3527 0.5898
2 6 9.7361 10.2209 7.8037 0.5898
3 6 8.2651 10.2737 10.2878 0.5898
4 6 7.5361 8.9829 10.6918 0.5898
5 6 8.2253 7.7315 10.1764 0.5898
6 6 9.6676 7.7549 10.6518 0.5898
7 1 11.3865 9.0927 7.7123 0.5898
8 1 10.1606 10.9897 8.6296 0.5898
9 1 7.7795 11.0175 10.7040 0.5898
10 1 7.8170 11.1196 9.5018 0.5898
11 1 6.6323 9.0139 11.4119 0.5898
12 1 6.6481 9.0020 10.2213 0.5898
13 1 7.8576 6.9615 10.6030 0.5898
14 1 7.8169 6.9439 9.3568 0.5898
15 1 10.2424 6.9109 11.4466 0.5898
16 1 10.2888 6.9867 10.2387 0.5898
ITEM: TIMESTEP
750
ITEM: NUMBER OF ATOMS
16
ITEM: BOX BOUNDS pp pp pp
0.0 18.000000
0.0 18.000000
0.0 18.000000
ITEM: ATOMS id type x y z rc
1 6 10.5124 8.9547 7.3753 0.6148
2 6 9.7416 10.2780 7.9460 0.6148
3 6 8.2095 10.2540 10.0363 0.6148
4 6 7.5287 9.0085 10.6254 0.6148
5 6 8.2365 7.6325 10.0291 0.6148
6 6 9.7111 7.7107 10.5784 0.6148
7 1 11.3794 9.0071 7.9105 0.6148
8 1 10.2255 11.0058 8.7254 0.6148
9 1 7.8365 11.1541 10.5558 0.6148
10 1 7.8300 11.0208 9.3457 0.6148
11 1 6.6211 8.9571 11.4118 0.6148
12 1 6.5833 8.9496 10.2345 0.6148
13 1 7.7572 6.8954 10.4646 0.6148
14 1 7.7402 6.8886 9.3403 0.6148
15 1 10.2064 6.9715 11.3802 0.6148
16 1 10.2180 6.9667 10.1230 0.6148
ITEM: TIMESTEP
775
ITEM: NUMBER OF ATOMS
16
ITEM: BOX BOUNDS pp pp pp
0.0 18.000000
0.0 18.000000
0.0 18.000000
ITEM: ATOMS id type x y z rc
1 6 10.5158 9.0003 7.5241 0.6445
2 6 9.8327 10.2262 7.9496 0.6445
3 6 8.2877 10.2795 10.0121 0.6445
4 6 7.5235 8.9717 10.3928 0.6445
5 6 8.3279 7.7548 10.0124 0.6445
6 6 9.7179 7.7870 10.5380 0.6445
7 1 11.3871 9.0260 7.9161 0.6445
8 1 10.1804 10.9889 8.8147 0.6445
9 1 7.9193 11.0500 10.4046 0.6445
10 1 7.8367 11.1127 9.2834 0.6445
11 1 6.5989 9.0087 11.2931 0.6445
12 1 6.6200 9.0963 10.0605 0.6445
13 1 7.7880 7.0513 10.4403 0.6445
14 1 7.7944 6.8933 9.2431 0.6445
15 1 10.1546 6.9493 11.2782 0.6445
16 1 10.2322 6.9478 10.0104 0.6445
ITEM: TIMESTEP
800
ITEM: NUMBER OF ATOMS
16
ITEM: BOX BOUNDS pp pp pp
0.0 18.000000
0.0 18.000000
0.0 18.000000
ITEM: ATOMS id type x y z rc
1 6 10.6055 8.9284 7.6829 0.6742
2 6 9.7521 10.3134 8.1502 0.6742
3 6 8.2988 10.2924 9.8160 0.6742
4 6 7.5503 8.9875 10.4303 0.6742
5 6 8.2891 7.7236 9.8769 0.6742
6 6 9.6655 7.7222 10.4517 0.6742
7 1 11.3976 9.0096 8.1244 0.6742
8 1 10.1278 10.9501 8.9062 0.6742
9 1 7.8588 11.0125 10.3672 0.6742
10 1 7.8290 11.0898 9.0359 0.6742
11 1 6.6329 9.0351 11.1297 0.6742
12 1 6.5960 8.9049 10.0131 0.6742
13 1 7.8088 6.9907 10.3425 0.6742
14 1 7.7886 7.0417 9.0613 0.6742
15 1 10.1489 6.9051 11.1919 0.6742
16 1 10.1383 6.9347 9.8795 0.6742
ITEM: TIMESTEP
825
ITEM: NUMBER OF ATOMS
16
ITEM: BOX BOUNDS pp pp pp
0.0 18.000000
0.0 18.000000
0.0 18.000000
ITEM: ATOMS id type x y z rc
1 6 10.4975 8.9713 7.6912 0.7038
2 6 9.7501 10.2709 8.2893 0.7038
3 6 8.2999 10.2835 9.6819 0.7038
4 6 7.6063 8.9191 10.3503 0.7038
5 6 8.2802 7.7696 9.7964 0.7038
6 6 9.6786 7.6988 10.2876 0.7038
7 1 11.3567 8.9824 8.1330 0.7038
8 1 10.2535 11.0106 8.9717 0.7038
9 1 7.8272 11.0469 10.2011 0.7038
10 1 7.8038 11.0083 9.0276 0.7038
11 1 6.6786 8.9965 11.0557 0.7038
12 1 6.6261 9.0688 9.9171 0.7038
13 1 7.8262 6.8850 10.2069 0.7038
14 1 7.8549 7.0230 9.0321 0.7038
15 1 10.1935 6.8482 10.9720 0.7038
16 1 10.2520 7.0115 9.8828 0.7038
ITEM: TIMESTEP
850
ITEM: NUMBER OF ATOMS
16
ITEM: BOX BOUNDS pp pp pp
0.0 18.000000
0.0 18.000000
0.0 18.000000
ITEM: ATOMS id type x y z rc
1 6 10.5668 9.0697 7.7546 0.7335
2 6 9.7639 10.2689 8.3534 0.7335
3 6 8.2250 10.2026 9.6377 0.7335
4 6 7.5355 8.9903 10.2139 0.7335
5 6 8.2543 7.8015 9.6810 0.7335
6 6 9.7654 7.7271 10.1325 0.7335
7 1 11.2797 8.9474 8.2379 0.7335
8 1 10.2670 11.0506 9.0550 0.7335
9 1 7.8636 11.0376 10.1971 0.7335
10 1 7.8058 11.0541 8.9800 0.7335
11 1 6.6638 8.9549 10.9515 0.7335
12 1 6.5424 8.9175 9.7372 0.7335
13 1 7.8321 7.0073 10.0922 0.7335
14 1 7.7240 6.9347 8.8956 0.7335
15 1 10.2289 6.9088 10.9443 0.7335
16 1 10.2526 6.9266 9.6790 0.7335
ITEM: TIMESTEP
875
ITEM: NUMBER OF ATOMS
16
ITEM: BOX BOUNDS pp pp pp
0.0 18.000000
0.0 18.000000
0.0 18.000000
ITEM: ATOMS id type x y z rc
1 6 10.4855 8.9732 7.8432 0.7631
2 6 9.7513 10.3551 8.3942 0.7631
3 6 8.3128 10.1985 9.6284 0.7631
4 6 7.5570 8.9655 10.1052 0.7631
5 6 8.2868 7.7558 9.5619 0.7631
6 6 9.7022 7.7284 10.0406 0.7631
7 1 11.4576 8.9967 8.3254 0.7631
8 1 10.1729 11.0947 9.2570 0.7631
9 1 7.8535 11.1227 9.9913 0.7631
10 1 7.8243 11.0098 8.8016 0.7631
11 1 6.6496 8.9254 10.8036 0.7631
12 1 6.6241 8.9027 9.6404 0.7631
13 1 7.7745 6.9567 10.0604 0.7631
14 1 7.7928 6.9575 8.8190 0.7631
15 1 10.1318 6.8439 10.8514 0.7631
16 1 10.2194 6.9723 9.5750 0.7631
ITEM: TIMESTEP
900
ITEM: NUMBER OF ATOMS
16
ITEM: BOX BOUNDS pp pp pp
0.0 18.000000
0.0 18.000000
0.0 18.000000
ITEM: ATOMS id type x y z rc
1 6 10.5138 9.0407 8.0787 0.7928
2 6 9.8263 10.3096 8.5023 0.7928
3 6 8.2057 10.2345 9.5299 0.7928
4 6 7.4969 8.9883 9.9987 0.7928
5 6 8.2210 7.6784 9.4420 0.7928
6 6 9.7437 7.7334 9.9831 0.7928
7 1 11.3125 9.0238 8.4689 0.7928
8 1 10.1578 11.0282 9.2484 0.7928
9 1 7.8262 10.9700 9.8203 0.7928
10 1 7.8776 10.9941 8.7542 0.7928
11 1 6.6004 8.9707 10.7488 0.7928
12 1 6.6672 8.9851 9.5341 0.7928
13 1 7.7204 6.8442 9.9349 0.7928
14 1 7.7875 6.9389 8.7872 0.7928
15 1 10.2106 6.8804 10.8489 0.7928
16 1 10.1719 6.9661 9.4836 0.7928
ITEM: TIMESTEP
925
ITEM: NUMBER OF ATOMS
16
ITEM: BOX BOUNDS pp pp pp
0.0 18.000000
0.0 18.000000
0.0 18.000000
ITEM: ATOMS id type x y z rc
1 6 10.4971 9.0249 8.1191 0.8225
2 6 9.6382 10.3537 8.5524 0.8225
3 6 8.2408 10.2256 9.3534 0.8225
4 6 7.5125 9.0148 9.8621 0.8225
5 6 8.3657 7.7327 9.4127 0.8225
6 6 9.7180 7.7531 9.9068 0.8225
7 1 11.2744 9.0126 8.5670 0.8225
8 1 10.2260 11.0798 9.3008 0.8225
9 1 7.8142 11.0554 9.8282 0.8225
10 1 7.7798 11.0369 8.5224 0.8225
11 1 6.6517 9.0233 10.6154 0.8225
12 1 6.6486 9.0802 9.4191 0.8225
13 1 7.8156 7.0091 9.8458 0.8225
14 1 7.8646 7.0204 8.6017 0.8225
15 1 10.1062 6.9257 10.6186 0.8225
16 1 10.1253 6.9668 9.4514 0.8225
ITEM: TIMESTEP
950
ITEM: NUMBER OF ATOMS
16
ITEM: BOX BOUNDS pp pp pp
0.0 18.000000
0.0 18.000000
0.0 18.000000
ITEM: ATOMS id type x y z rc
1 6 10.5128 8.8889 8.3133 0.8521
2 6 9.7301 10.3657 8.7778 0.8521
3 6 8.2487 10.3852 9.2672 0.8521
4 6 7.5301 9.0116 9.8023 0.8521
5 6 8.2499 7.7171 9.2965 0.8521
6 6 9.7793 7.7216 9.7574 0.8521
7 1 11.3625 8.9959 8.6989 0.8521
8 1 10.2740 11.0194 9.5316 0.8521
9 1 7.8421 11.0564 9.5999 0.8521
10 1 7.7809 10.9811 8.5725 0.8521
11 1 6.6046 8.9330 10.5123 0.8521
12 1 6.5304 9.0363 9.2635 0.8521
13 1 7.8362 6.9534 9.8134 0.8521
14 1 7.6946 6.9268 8.5702 0.8521
15 1 10.2666 6.9221 10.5150 0.8521
16 1 10.1731 6.8838 9.3601 0.8521
ITEM: TIMESTEP
975
ITEM: NUMBER OF ATOMS
16
ITEM: BOX BOUNDS pp pp pp
0.0 18.000000
0.0 18.000000
0.0 18.000000
ITEM: ATOMS id type x y z rc
1 6 10.4851 8.9876 8.3790 0.8818
2 6 9.6728 10.2174 8.8273 0.8818
3 6 8.2680 10.2060 9.1540 0.8818
4 6 7.5781 9.0014 9.7332 0.8818
5 6 8.3323 7.7459 9.2510 0.8818
6 6 9.7849 7.6979 9.7075 0.8818
7 1 11.2995 9.0139 8.7973 0.8818
8 1 10.1869 11.0393 9.6709 0.8818
9 1 7.7326 10.9850 9.5977 0.8818
10 1 7.7200 11.0664 8.5507 0.8818
11 1 6.5983 8.9099 10.5022 0.8818
12 1 6.5813 9.0349 9.1932 0.8818
13 1 7.8713 6.8827 9.5768 0.8818
14 1 7.8329 6.8994 8.3805 0.8818
15 1 10.2151 6.9563 10.4683 0.8818
16 1 10.2468 6.9453 9.2248 0.8818
ITEM: TIMESTEP
1000
ITEM: NUMBER OF ATOMS
16
ITEM: BOX BOUNDS pp pp pp
0.0 18.000000
0.0 18.000000
0.0 18.000000
ITEM: ATOMS id type x y z rc
1 6 10.4791 9.0288 8.4316 0.9114
2 6 9.7648 10.1833 8.9753 0.9114
3 6 8.3131 10.2658 9.0173 0.9114
4 6 7.5256 9.0618 9.5785 0.9114
5 6 8.3042 7.7939 9.1023 0.9114
6 6 9.7528 7.7286 9.6225 0.9114
7 1 11.3767 9.0460 8.9266 0.9114
8 1 10.1298 11.0475 9.6427 0.9114
9 1 7.7860 11.0740 9.4630 0.9114
10 1 7.7660 11.0582 8.2506 0.9114
11 1 6.6073 8.9907 10.3887 0.9114
12 1 6.5847 9.0206 9.0956 0.9114
13 1 7.8358 6.9045 9.4888 0.9114
14 1 7.7450 6.8168 8.2830 0.9114
15 1 10.1338 6.9287 10.2971 0.9114
16 1 10.2075 6.8969 8.9852 0.9114
ITEM: TIMESTEP
1025
ITEM: NUMBER OF ATOMS
16
ITEM: BOX BOUNDS pp pp pp
0.0 18.000000
0.0 18.000000
0.0 18.000000
ITEM: ATOMS id type x y z rc
1 6 10.4695 8.9969 8.5567 0.9411
2 6 9.6849 10.3055 9.0245 0.9411
3 6 8.2359 10.2899 8.9333 0.9411
4 6 7.5422 9.0373 9.4204 0.9411
5 6 8.2407 7.7540 8.9805 0.9411
6 6 9.6486 7.8015 9.4489 0.9411
7 1 11.3683 9.0730 8.9822 0.9411
8 1 10.1687 11.0509 9.7958 0.9411
9 1 7.7715 11.0234 9.3145 0.9411
10 1 7.7742 11.0687 8.2387 0.9411
11 1 6.6675 9.0162 10.1599 0.9411
12 1 6.6372 9.0409 9.0326 0.9411
13 1 7.8362 6.9205 9.4099 0.9411
14 1 7.8984 6.8858 8.2130 0.9411
15 1 10.2002 6.9263 10.1512 0.9411
16 1 10.0905 6.9389 9.0237 0.9411
ITEM: TIMESTEP
1050
ITEM: NUMBER OF ATOMS
16
ITEM: BOX BOUNDS pp pp pp
0.0 18.000000
0.0 18.000000
0.0 18.000000
ITEM: ATOMS id type x y z rc
1 6 10.4288 9.1104 8.4456 0.9520
2 6 9.8276 10.2623 8.9956 0.9520
3 6 8.2598 10.1676 8.8058 0.9520
4 6 7.4633 9.0524 9.4288 0.9520
5 6 8.1692 7.7456 8.8849 0.9520
6 6 9.8081 7.7824 9.4621 0.9520
7 1 11.3367 8.9244 8.9993 0.9520
8 1 10.1450 10.9872 9.9186 0.9520
9 1 7.8570 11.0348 9.4410 0.9520
10 1 7.7433 11.0931 8.2038 0.9520
11 1 6.7156 8.9016 10.1519 0.9520
12 1 6.6351 8.9594 8.9850 0.9520
13 1 7.7802 6.9548 9.3475 0.9520
14 1 7.8229 6.9206 8.1557 0.9520
15 1 10.1918 6.9406 10.1154 0.9520
16 1 10.1732 6.9849 9.0023 0.9520
ITEM: TIMESTEP
1075
ITEM: NUMBER OF ATOMS
16
ITEM: BOX BOUNDS pp pp pp
0.0 18.000000
0.0 18.000000
0.0 18.000000
ITEM: ATOMS id type x y z rc
1 6 10.5297 8.9643 8.5925 0.9548
2 6 9.7749 10.3293 9.0223 0.9548
3 6 8.2584 10.3145 8.8788 0.9548
4 6 7.5333 8.9619 9.4322 0.9548
5 6 8.3167 7.8290 8.8740 0.9548
6 6 9.7836 7.6823 9.4741 0.9548
7 1 11.3507 8.9590 9.0221 0.9548
8 1 10.1477 11.1055 9.8788 0.9548
9 1 7.8857 11.0361 9.3428 0.9548
10 1 7.8264 11.0732 8.1300 0.9548
11 1 6.6852 8.9562 10.2029 0.9548
12 1 6.6478 9.0325 8.9925 0.9548
13 1 7.8029 6.8498 9.3207 0.9548
14 1 7.8390 6.9483 8.1843 0.9548
15 1 10.1706 6.9920 10.2132 0.9548
16 1 10.2577 6.8793 9.0123 0.9548
ITEM: TIMESTEP
1100
ITEM: NUMBER OF ATOMS
16
ITEM: BOX BOUNDS pp pp pp
0.0 18.000000
0.0 18.000000
0.0 18.000000