ITEM: TIMESTEP
1
ITEM: NUMBER OF ATOMS
1500
ITEM: BOX BOUNDS pp pp pp
0.0 50.0
0.0 50.0
0.0 50.0
ITEM: ATOMS id type x y z gnn_topology_err
1 1 19.4642 11.2406 18.5807 1.2976
2 1 18.6082 42.0986 10.1439 -0.0618
3 1 37.7134 17.4587 48.4813 -0.5137
4 1 28.0899 4.5615 30.0379 1.0135
5 1 43.2383 18.7281 6.8716 -0.4264
6 1 24.3830 42.2504 19.3758 0.0436
7 1 3.4356 13.7999 33.8118 0.3312
8 1 34.9608 47.2015 28.3621 1.9970
9 1 41.2523 23.3887 30.8713 -0.6652
10 1 16.6286 23.8965 28.6762 0.6488
11 1 12.4813 21.3136 47.2135 -0.7427
12 1 2.6005 34.2003 22.7694 1.2981
13 1 41.7082 41.3259 35.4612 0.9207
14 1 16.2016 10.2442 16.7351 0.7884
15 1 38.5231 20.6545 40.6489 0.0194
16 1 20.4136 25.7946 24.8412 -0.5151
17 1 1.0335 5.0601 1.8717 -2.2204
18 1 22.3090 36.3524 49.0891 1.4053
19 1 3.7527 1.9841 0.1093 -0.5161
20 1 30.9689 11.5635 30.7416 -0.0887
21 1 28.6536 39.3971 33.1284 -1.2479
22 1 47.4265 43.3170 1.2709 -1.5184
23 1 34.8005 24.6700 0.9765 -0.1545
24 1 30.8545 11.6756 14.6759 -0.3036
25 1 11.3249 16.0517 19.6586 -0.8545
26 1 14.3305 29.5778 45.9134 0.9193
27 1 11.6211 32.8858 5.0783 1.4078
28 1 7.7065 48.6263 24.0090 0.4595
29 1 42.9831 3.5524 28.4229 -1.8233
30 1 26.3878 4.1926 37.7876 0.9166
31 1 30.3165 49.3530 1.2253 -0.4090
32 1 38.5032 7.4051 37.5545 0.2832
33 1 17.0337 28.3258 26.0735 0.7361
34 1 37.3054 27.0736 7.3524 -0.1135
35 1 29.7257 31.6075 4.2231 -0.6713
36 1 27.3703 18.0027 1.7934 0.7814
37 1 38.7715 6.5950 15.7073 1.0698
38 1 16.6251 46.0168 28.1526 0.5019
39 1 27.5939 38.9345 14.1490 0.4310
40 1 24.2558 6.8530 48.6235 -1.6447
41 1 45.2362 15.0460 7.2430 -0.3096
42 1 4.8905 8.0443 24.9983 -0.0072
43 1 41.2491 21.8417 7.3415 -0.3030
44 1 42.4866 12.5784 6.2480 -0.6406
45 1 36.8397 7.8995 25.6194 -0.4973
46 1 34.9391 26.5742 30.5384 -1.9901
47 1 47.4643 19.8591 37.0869 1.1444
48 1 46.4094 36.9929 24.9980 1.1722
49 1 7.0474 30.9261 10.8767 0.6070
50 1 19.4660 0.8262 17.3408 -0.5541
51 1 17.0683 17.5954 35.5307 -1.0073
52 1 8.5175 10.7735 33.8786 -0.3567
53 1 30.1802 19.9536 30.9467 -0.4847
54 1 44.3031 33.9380 32.7036 1.3546
55 1 23.0669 23.9382 27.4984 -0.6829
56 1 1.4715 34.1429 38.0140 2.0946
57 1 29.2074 49.4430 42.9621 -0.0779
58 1 42.7618 12.4038 17.9158 -0.7758
59 1 2.3361 15.8477 4.6674 -0.3207
60 1 33.1137 38.3258 6.9869 -0.7968
61 1 0.0269 21.3749 18.4642 1.8708
62 1 6.9871 5.3818 32.9946 1.2746
63 1 4.0801 3.1348 46.3112 -0.5463
64 1 15.2024 23.6789 7.4934 0.3072
65 1 49.0360 23.4267 6.8797 0.1298
66 1 27.1782 24.9777 17.5164 0.3924
67 1 36.2507 27.2560 13.3619 0.8490
68 1 29.5676 18.2512 0.0949 -0.7618
69 1 48.7713 0.5335 31.2445 -1.4404
70 1 28.5850 34.7236 27.6068 -0.2285
71 1 5.4156 21.3600 46.1732 -1.2493
72 1 46.6904 29.4022 0.5676 0.4886
73 1 25.5949 6.1611 46.6818 -0.7962
74 1 33.3828 23.7116 47.0396 -0.9806
75 1 17.8614 15.6693 1.0272 0.4251
76 1 49.1878 43.6447 7.6525 0.0703
77 1 41.7959 46.3202 29.6509 0.3945
78 1 22.1150 23.6813 39.0019 0.5031
79 1 29.0423 27.2451 32.1428 0.4755
80 1 6.8126 49.3728 45.4624 0.9297
81 1 34.6767 25.5828 23.0356 -0.5594
82 1 32.1655 10.5398 5.1188 0.9499
83 1 17.2407 44.6521 12.8938 0.1807
84 1 48.9728 33.0710 34.7547 0.3042
85 1 12.6169 41.0086 46.4918 1.1821
86 1 21.5111 5.4486 1.6386 0.5513
87 1 2.7728 47.2165 37.7851 0.3753
88 1 41.0396 26.9038 48.8005 -0.7238
89 1 42.6510 45.3888 7.9374 -0.9374
90 1 45.5392 33.1925 16.2006 0.8762
91 1 2.1431 13.0884 43.8680 0.8527
92 1 5.3874 4.5730 28.4133 -0.1761
93 1 48.9922 42.2383 6.3523 0.5324
94 1 33.1912 25.2629 33.5310 0.3186
95 1 6.6030 7.2873 7.8602 1.0102
96 1 29.8036 28.9291 27.9332 -1.0053
97 1 29.1953 41.8653 49.4939 -1.3564
98 1 44.1767 43.0425 29.5051 0.1426
99 1 1.8021 15.2495 0.7953 -0.4176
100 1 13.2267 9.4452 8.9281 -1.6748
101 1 24.3251 29.7307 42.6735 -0.1366
102 1 34.9683 27.5695 12.7834 -0.7989
103 1 21.7112 9.4593 23.0353 -0.2421
104 1 25.1906 3.3125 32.9169 0.3563
105 1 37.0123 7.1690 48.0925 2.3470
106 1 45.5743 18.1699 8.6541 0.6960
107 1 39.6093 23.1190 5.1176 -2.0186
108 1 5.2904 29.9813 39.2326 1.0203
109 1 6.3414 26.9568 10.9287 -0.9068
110 1 11.6136 12.0016 7.4311 0.3655
111 1 19.8271 13.0064 28.0575 1.2368
112 1 0.0830 49.5398 39.8707 0.9590
113 1 0.5373 39.1767 26.6328 0.8225
114 1 14.5577 20.4625 43.7960 -0.2982
115 1 32.9990 45.5318 0.2277 -0.8346
116 1 24.1246 37.2238 24.3357 2.2453
117 1 36.2834 7.6335 28.6469 1.3394
118 1 45.0591 10.0050 37.9024 -0.1190
119 1 34.4174 23.9334 3.1124 0.0721
120 1 9.7032 8.4047 20.8156 -1.5092
121 1 17.2945 49.4284 37.1451 0.1641
122 1 34.4929 36.9140 20.3037 -1.0637
123 1 34.8667 34.7018 35.1743 -0.2439
124 1 40.1786 5.5692 47.1692 0.6685
125 1 0.3911 47.1982 6.8183 -0.7191
126 1 12.3291 24.9044 20.9020 0.8183
127 1 37.7901 43.4714 39.4945 -0.0200
128 1 0.4607 0.2202 14.7962 0.3106
129 1 46.2677 34.0621 35.4034 -1.0982
130 1 1.8544 26.2857 35.6579 0.0825
131 1 3.3293 12.0151 47.9916 0.0657
132 1 43.0993 33.2750 14.5176 -0.8887
133 1 18.5523 8.0815 37.0822 0.7194
134 1 40.9380 2.9478 48.0468 0.2729
135 1 45.7854 35.2372 28.1855 -0.2985
136 1 29.4166 43.9353 32.3281 -0.1800
137 1 23.8385 4.0521 0.6116 -0.2067
138 1 30.7625 34.8684 16.5210 -0.4618
139 1 34.2299 22.4076 8.3705 0.4555
140 1 5.4584 46.5137 36.7692 1.0793
141 1 12.0372 30.7536 42.8020 0.3719
142 1 42.3252 3.8767 27.2463 0.3967
143 1 35.9014 8.7697 42.4963 -0.2802
144 1 34.5036 38.5254 1.9671 -0.4996
145 1 35.5546 12.5247 6.0287 -0.0453
146 1 22.3678 9.6090 22.7699 -1.0413
147 1 24.3516 6.8701 13.2317 -1.3438
148 1 43.3811 12.0478 47.1854 1.0401
149 1 21.0237 3.4519 14.6907 -0.1264
150 1 14.5107 38.6367 42.8204 -0.3461
151 1 33.0740 41.8173 8.3905 1.3602
152 1 11.4988 6.8009 5.8717 -0.4350
153 1 47.6513 33.5874 21.7500 -0.0071
154 1 6.2278 3.9706 35.0415 1.8019
155 1 1.9652 43.2226 13.3087 -0.9922
156 1 45.2143 41.3733 28.6744 0.2645
157 1 22.0290 1.2838 27.1361 -0.3933
158 1 0.9311 33.1387 11.0283 0.0862
159 1 36.1795 28.9834 19.1060 0.6823
160 1 20.0160 41.0969 0.6135 0.3986
161 1 48.8385 3.7679 43.1538 0.5410
162 1 2.0081 39.2838 45.7848 -1.2339
163 1 16.5290 39.9652 17.0222 0.4402
164 1 12.0201 8.3530 23.1650 -0.3392
165 1 38.3438 21.1224 40.1235 1.3603
166 1 24.7752 40.9439 6.3716 0.4509
167 1 26.9063 36.4357 31.9115 -0.4795
168 1 17.4276 10.1014 37.9936 -1.9899
169 1 23.3270 17.2528 14.7973 1.6520
170 1 42.6815 3.1403 6.5522 -0.8132
171 1 32.9305 32.3862 23.9612 2.2551
172 1 0.4223 46.4003 13.2305 1.5756
173 1 27.6454 3.0482 30.7643 -0.6002
174 1 28.4553 20.8897 5.2890 -1.3599
175 1 28.9749 9.6418 23.3677 0.4707
176 1 21.6445 36.3856 43.3496 0.1954
177 1 44.4112 44.6587 44.6462 2.4104
178 1 26.2930 4.0935 7.0011 0.3849
179 1 36.4457 14.3760 38.0616 -0.4516
180 1 46.4989 13.1788 22.4676 0.9150
181 1 38.0914 9.9911 40.3276 1.9228
182 1 47.1021 49.1439 12.5489 -0.4677
183 1 41.5096 37.5394 2.0287 -0.3656
184 1 45.7533 15.7693 14.4716 1.9599
185 1 27.3556 48.0306 45.4521 -1.4367
186 1 4.1599 13.9748 23.0240 1.7086
187 1 34.9809 48.3078 9.0526 1.8088
188 1 45.4507 29.2259 33.0052 1.1158
189 1 16.7396 18.4550 39.4118 -0.1668
190 1 14.9856 33.8858 21.1771 1.8728
191 1 15.8526 49.8274 28.9684 -0.7827
192 1 2.0979 29.2661 43.6025 -0.1581
193 1 42.0009 35.7125 37.0523 -0.0428
194 1 37.4531 35.3797 23.3396 -0.4492
195 1 30.0051 47.4660 14.9229 -0.0336
196 1 4.6937 19.0589 40.0657 -1.4524
197 1 47.2017 38.0707 43.5644 -0.7865
198 1 18.8341 10.2102 2.0245 0.5810
199 1 18.8928 33.5658 5.1463 -0.4509
200 1 33.3670 45.4457 34.7760 -0.4366
201 1 32.1449 19.7611 12.6373 -1.8437
202 1 37.6045 30.5812 37.8534 0.6618
203 1 5.2510 9.7186 31.9935 0.4120
204 1 46.2346 26.5318 18.8323 0.0040
205 1 47.3181 22.7316 8.4922 -2.1611
206 1 30.8585 46.7794 23.1747 0.4670
207 1 47.6800 16.1740 20.2450 -1.2202
208 1 39.0689 34.2591 33.3419 -0.1805
209 1 34.3087 16.1029 34.8214 -0.4943
210 1 25.2898 0.7523 35.2134 1.9077
211 1 49.1155 3.5591 2.9430 -0.6475
212 1 13.1992 41.1909 38.6904 0.1722
213 1 42.7213 33.5762 3.8391 1.8278
214 1 31.0695 2.0856 30.0445 0.5055
215 1 8.0725 23.3278 14.1705 0.7056
216 1 32.1247 11.7764 7.7262 2.2079
217 1 8.8033 46.5298 31.1224 -0.2731
218 1 7.9795 21.6951 21.8648 0.0744
219 1 45.6664 16.5788 47.4929 1.8415
220 1 38.3450 7.5446 2.7361 1.5118
221 1 1.0024 47.0950 46.1885 -0.7151
222 1 39.7633 10.7890 45.1737 -0.1009
223 1 23.2262 2.7332 23.4548 -0.3668
224 1 46.1424 2.6681 43.2010 -0.5465
225 1 33.7321 49.2008 15.4782 1.5750
226 1 13.5514 12.4474 28.8657 -0.9770
227 1 32.3046 34.6553 41.2573 -0.6805
228 1 5.0806 32.4011 35.9020 -0.8005
229 1 9.6538 42.7830 13.3412 0.0208
230 1 23.1936 10.5434 33.7371 1.0234
231 1 39.5538 23.1488 47.3454 0.2956
232 1 4.7982 13.6616 41.7131 1.0275
233 1 27.8415 21.7850 48.5610 1.2298
234 1 43.5757 48.3298 5.4944 0.0446
235 1 17.3356 27.0749 0.9816 -0.1862
236 1 36.8747 26.2927 43.9899 -1.0824
237 1 14.6204 13.5600 16.3832 -1.5394
238 1 26.6688 23.7226 9.8649 0.5909
239 1 47.4845 19.4416 43.5850 1.7752
240 1 33.3945 47.5233 5.1859 -0.1093
241 1 18.6377 46.8686 19.0215 -0.1282
242 1 32.5310 32.4007 35.1790 0.8539
243 1 2.4753 45.6526 46.3993 0.0229
244 1 27.1876 41.9363 14.8063 -0.6384
245 1 44.1393 18.5813 44.3532 -0.1304
246 1 43.0813 17.2163 22.9307 -0.2152
247 1 4.9304 29.9916 29.5002 -2.4341
248 1 41.6974 49.0603 6.0658 0.8783
249 1 40.7794 25.5135 18.7852 0.7655
250 1 41.8005 38.8431 7.2555 0.0910
251 1 5.1893 14.9286 45.5030 -0.0980
252 1 39.8694 4.9073 23.2758 1.1267
253 1 23.1190 20.5510 4.3991 1.1092
254 1 38.5720 8.8463 5.4415 -0.0594
255 1 0.3924 19.8734 33.0821 -1.2539
256 1 24.1257 38.9799 4.6401 -0.6735
257 1 30.2734 26.1866 9.0454 -0.5959
258 1 40.3582 47.8480 41.4624 -0.5724
259 1 26.7394 27.3287 43.4248 0.0030
260 1 10.8022 12.0408 47.0007 -1.7731
261 1 39.4339 22.2914 19.9562 -0.6483
262 1 39.8376 2.5543 34.9090 -0.0835
263 1 46.0320 40.9155 46.7797 1.7224
264 1 7.1326 11.9747 30.6508 -0.4690
265 1 40.5344 49.2849 33.9934 -0.1664
266 1 21.5892 18.1887 39.1289 0.4610
267 1 2.6886 18.7740 19.7344 -0.2699
268 1 6.1049 8.8520 39.8291 1.3117
269 1 12.6423 49.7946 29.9018 0.5745
270 1 38.9608 15.9160 48.7060 -1.0429
271 1 23.3802 14.7070 26.1783 -1.4393
272 1 15.1602 11.9955 21.8437 0.8616
273 1 7.0609 4.3893 24.8064 -1.7189
274 1 33.8489 7.7641 35.4112 -0.0011
275 1 47.8652 24.5504 29.7287 -0.9865
276 1 5.7734 0.8380 9.8192 0.8873
277 1 3.9584 12.9373 16.5723 0.6632
278 1 19.1074 25.0776 14.2244 -0.9147
279 1 36.0600 21.5471 23.5534 0.1871
280 1 18.6667 17.0309 16.9644 0.5644
281 1 42.0089 46.4758 36.9556 -0.3037
282 1 5.4803 21.9502 12.0521 -1.9672
283 1 40.5003 19.1262 43.7827 -1.5256
284 1 39.0669 13.3837 21.1776 -0.4966
285 1 12.4017 4.9855 8.8764 -0.0465
286 1 0.4690 49.3111 30.9179 1.2080
287 1 47.4262 5.8094 26.3201 1.0476
288 1 40.2375 16.6491 7.7644 -0.6434
289 1 45.4356 38.7803 19.0341 -0.1541
290 1 27.5001 10.0428 6.7886 -0.4304
291 1 3.6321 46.7321 41.9596 0.0362
292 1 42.2370 20.9914 17.4044 0.9405
293 1 22.2296 25.8938 30.5077 -0.5415
294 1 19.8961 14.7338 8.9784 0.2145
295 1 34.5261 8.3528 21.1215 0.8242
296 1 8.6081 40.7425 41.5979 0.4752
297 1 21.7462 45.2549 39.1844 -0.7750
298 1 3.8206 29.5830 6.9598 0.2315
299 1 36.9703 28.2482 12.5066 -0.6887
300 1 42.6511 28.0039 8.5188 1.2070
301 1 46.3110 1.4315 37.0345 -1.3166
302 1 48.5082 35.4589 19.3667 0.4512
303 1 42.5368 4.9077 5.1300 -0.3747
304 1 3.7787 27.0320 17.0382 0.1300
305 1 17.9481 19.0784 8.9727 0.9196
306 1 18.3478 13.0070 30.2264 -0.0748
307 1 11.3457 48.1410 26.1163 -0.2286
308 1 20.9229 19.2722 39.3855 1.4821
309 1 31.7935 13.2369 1.8722 0.3821
310 1 2.6355 43.1708 45.0887 0.1305
311 1 8.9898 45.6638 0.8692 -0.4328
312 1 37.1703 26.5700 13.9400 -1.1736
313 1 8.3992 22.4986 2.9542 -1.7214
314 1 22.1446 47.0550 24.3843 -0.6326
315 1 23.7599 27.0901 36.0501 -0.2464
316 1 33.4177 36.1867 47.5538 1.5315
317 1 27.7542 43.5059 24.7481 0.5827
318 1 10.9533 38.0677 46.5877 1.6245
319 1 36.1762 31.2798 45.0551 1.2379
320 1 31.6966 49.3025 34.2281 0.2841
321 1 24.4917 16.9569 46.4652 -0.2826
322 1 29.6344 36.3797 16.6840 1.1469
323 1 21.5767 4.9063 47.5042 -0.9909
324 1 46.7301 24.1811 41.5841 -0.3962
325 1 4.2419 16.3879 1.2553 -1.9511
326 1 46.3536 26.7856 48.4853 0.6476
327 1 43.1293 46.9319 11.7397 1.9944
328 1 5.5024 41.1376 3.9594 -0.1606
329 1 46.8392 5.2083 25.8522 -1.1625
330 1 48.9196 43.6205 16.7211 -0.0662
331 1 49.3376 13.6372 18.8591 0.7176
332 1 30.2007 40.5273 45.2019 -0.1730
333 1 48.0719 15.9909 33.7596 -1.8134
334 1 7.5578 31.2551 47.0074 0.9444
335 1 2.4924 0.5956 27.0669 -1.8020
336 1 3.3233 11.6374 1.5227 0.0003
337 1 27.0032 26.9576 22.4632 1.1432
338 1 20.2079 35.2981 2.5612 0.2123
339 1 13.6949 21.4345 48.6468 0.7263
340 1 20.3750 14.6919 2.3117 1.9990
341 1 11.6916 5.2846 30.0081 0.0915
342 1 29.8807 4.9028 25.3437 -0.1727
343 1 33.5983 26.9814 40.7384 0.0673
344 1 24.7475 41.2203 39.0410 1.1319
345 1 33.8978 41.6489 15.2224 1.3866
346 1 21.9520 21.7924 36.2819 -0.7284
347 1 38.2582 18.3731 2.1147 0.5568
348 1 34.5388 22.2361 38.6495 1.1409
349 1 45.7477 32.5121 27.6395 -0.1820
350 1 3.0579 44.2337 49.5767 0.7647
351 1 46.6738 13.2761 23.7424 -1.4810
352 1 49.2918 4.8324 19.6264 0.7831
353 1 37.0044 8.5275 21.7190 -0.5905
354 1 7.6632 45.6725 44.9638 -0.7516
355 1 32.8444 30.5272 19.5649 -1.7038
356 1 31.6604 47.0452 34.6272 -0.4635
357 1 34.7616 42.0616 36.3342 0.2499
358 1 22.4179 31.4478 7.7495 1.9528
359 1 28.3591 11.3593 46.4309 1.1002
360 1 44.9920 45.8068 21.9785 -0.6046
361 1 19.8593 28.0457 7.4471 -0.9748
362 1 33.5520 38.8397 26.5377 1.1972
363 1 45.2436 13.6538 27.6877 -0.4162
364 1 46.4290 30.6626 15.4597 1.1649
365 1 40.5833 34.9038 22.5043 -1.5232
366 1 42.3322 22.2933 47.9224 -1.2189
367 1 2.0010 30.8147 39.8644 0.2452
368 1 47.5977 21.2665 39.6110 0.5653
369 1 22.8622 37.8306 13.2700 0.0517
370 1 18.1494 40.4445 44.1709 -0.2685
371 1 4.2895 29.7034 24.0050 0.9787
372 1 1.5067 10.8967 1.1671 -0.5714
373 1 33.9412 25.9461 21.5215 -0.2214
374 1 16.4220 43.8758 47.0883 0.8025
375 1 21.7264 4.0760 49.7176 1.3555
376 1 39.6091 38.0232 48.3729 -1.1699
377 1 30.8404 31.1957 29.2751 -0.6117
378 1 18.7526 27.8172 48.2960 0.5967
379 1 48.2379 5.4847 27.9864 1.9323
380 1 45.7584 4.3547 15.0347 -1.5286
381 1 0.1790 23.3126 48.0378 -0.3719
382 1 20.0631 41.2485 5.3238 -0.7459
383 1 14.8943 32.2466 30.7687 0.3204
384 1 33.5515 49.2012 34.1752 0.6486
385 1 46.1501 46.0979 23.8854 -0.9077
386 1 36.5190 17.5513 34.3994 0.8923
387 1 13.5692 30.5683 14.7665 0.3465
388 1 30.3852 5.2250 16.9671 -0.1173
389 1 13.9028 18.8671 42.4010 -0.6001
390 1 14.4389 19.1355 13.2302 -1.1734
391 1 14.3382 34.1530 29.7471 -0.0574
392 1 43.4551 1.8906 3.7244 0.2967
393 1 36.4191 28.7952 41.6168 -1.5467
394 1 21.6833 40.1787 21.0374 1.4158
395 1 38.2900 34.8824 18.0522 1.0048
396 1 13.2023 14.9371 48.9599 -0.4971
397 1 23.3811 48.7603 28.9838 0.1030
398 1 2.1914 27.4844 41.1613 -1.5822
399 1 36.1197 23.3341 5.5834 -0.3044
400 1 43.8614 36.0328 30.2150 -0.1037
401 1 30.2725 7.7324 13.3500 1.2986
402 1 29.9195 46.4024 22.1473 -0.8110
403 1 26.5411 2.2830 9.3844 -0.6585
404 1 17.4618 31.7288 19.4734 -2.0309
405 1 29.5134 4.2557 11.3441 0.8769
406 1 33.5561 10.3829 22.1064 -0.2503
407 1 29.6527 4.2484 17.7962 -0.3747
408 1 15.9306 3.1299 42.8699 0.2135
409 1 7.5319 25.7129 21.9099 1.1307
410 1 7.0244 48.9779 4.2311 -0.4011
411 1 10.1899 46.9905 41.6742 -0.9141
412 1 2.3369 47.5939 36.7972 1.7608
413 1 46.6604 40.7543 26.0860 -0.3142
414 1 27.2861 0.4231 39.6078 0.1532
415 1 41.2681 6.9686 35.7686 -1.8891
416 1 17.3432 38.5316 1.7003 0.4242
417 1 19.3128 5.0420 10.6009 0.4487
418 1 33.6304 5.3561 30.2558 -0.8356
419 1 31.2921 47.8311 21.9356 0.8779
420 1 38.7462 7.0859 35.7804 1.0570
421 1 25.2867 5.8606 46.1285 -0.3821
422 1 39.2938 5.6289 8.0776 -0.8352
423 1 46.9694 45.0635 49.8656 -0.3478
424 1 49.0010 14.8605 46.5925 0.0484
425 1 19.2877 43.4654 49.0811 -0.6453
426 1 27.5416 23.1446 23.8461 -0.8646
427 1 39.4407 9.5015 26.0415 -1.0898
428 1 46.1565 25.2384 6.1166 0.1645
429 1 6.8484 32.2737 12.6438 -1.4345
430 1 32.7518 43.5599 46.1537 1.7680
431 1 17.3274 29.1614 1.9486 0.9367
432 1 28.2140 46.9803 19.6563 0.0676
433 1 49.6687 24.4805 19.0451 -0.2229
434 1 35.9532 44.5340 18.3251 -1.6748
435 1 37.4581 47.1931 36.0433 -0.4221
436 1 10.5917 29.0242 5.6700 2.7822
437 1 33.3199 8.1131 42.4841 0.6264
438 1 30.5553 0.6200 12.9884 -0.5173
439 1 41.3444 9.8925 44.5976 0.8110
440 1 36.2813 25.6374 48.4892 1.6432
441 1 26.8349 20.4584 44.4850 0.8180
442 1 48.6272 41.3510 13.1483 0.1770
443 1 23.5519 17.1671 13.6539 -0.5341
444 1 21.4767 2.0218 30.6777 -0.9804
445 1 1.4515 48.7480 28.3289 0.8262
446 1 20.3022 2.6130 17.9068 1.2688
447 1 2.3170 10.2529 8.6404 1.2004
448 1 14.8888 3.6978 24.9892 -1.3156
449 1 11.8634 15.5560 23.6264 1.4575
450 1 19.2506 29.8931 29.5283 -1.3648
451 1 8.9071 38.6474 22.3966 1.1997
452 1 40.1429 38.7833 40.5231 -0.9823
453 1 13.1686 41.1887 21.2364 0.0528
454 1 40.5267 38.3267 43.7707 -0.8338
455 1 1.9198 28.6184 20.3026 1.0977
456 1 37.8972 28.0325 18.9234 0.0026
457 1 48.5190 45.1840 22.6256 -0.9623
458 1 16.3139 20.9409 48.1595 -1.7067
459 1 40.6814 35.9178 14.4872 0.2004
460 1 46.4277 31.2318 31.6492 1.1045
461 1 6.5726 42.5956 23.8503 1.1912
462 1 18.5943 28.4505 25.6350 -0.8512
463 1 27.7496 27.6085 15.4044 -0.5959
464 1 10.4216 46.3967 14.4661 0.2981
465 1 34.7853 27.6610 25.6897 -0.7192
466 1 24.7241 38.5505 25.9351 -0.1425
467 1 19.3947 39.3166 0.7235 -0.5537
468 1 16.9649 25.3484 40.9841 0.7106
469 1 11.1407 48.7954 9.8580 0.6017
470 1 8.5080 10.9817 5.3415 -0.8977
471 1 46.0684 41.2094 20.6172 -2.8302
472 1 2.7374 2.6825 9.1920 -0.1713
473 1 8.4347 30.7191 17.7268 0.7164
474 1 42.8632 31.3093 49.6376 1.3661
475 1 2.1734 42.8461 35.0312 -1.8410
476 1 30.3741 42.0074 48.0495 0.1403
477 1 25.9373 12.5884 16.3252 1.0289
478 1 16.2192 33.4798 47.2063 -1.5353
479 1 31.9297 10.8087 18.5958 -0.6349
480 1 42.0208 21.3867 11.8165 0.4734
481 1 44.2596 12.3703 35.1902 0.3257
482 1 22.2629 48.4105 27.8661 -0.5514
483 1 39.7636 17.3393 49.1982 1.0040
484 1 27.3992 13.7097 25.1402 0.7262
485 1 44.0791 15.7147 44.9751 0.5569
486 1 32.1199 44.0842 25.0720 0.9352
487 1 32.1168 29.4258 10.6017 -0.5048
488 1 44.1197 44.4246 34.3166 -1.4045
489 1 26.1172 32.4877 3.2464 0.3781
490 1 8.8936 28.0132 41.0365 -0.3251
491 1 42.0696 43.9309 35.7854 -0.2645
492 1 16.9794 39.0191 30.2403 -1.7903
493 1 21.6150 10.4740 17.9977 0.5208
494 1 13.0647 11.9542 48.4096 0.9558
495 1 25.7784 29.1206 0.5825 -0.1417
496 1 39.8035 36.8859 1.1251 -0.9391
497 1 1.3383 42.2052 26.9644 1.2431
498 1 39.4450 26.2369 28.4707 0.3914
499 1 49.7006 49.7386 17.5012 -0.4469
500 1 25.3190 31.7576 29.1756 -0.8883
501 1 23.8909 31.3797 25.9262 -0.6984
502 1 2.6920 5.2809 26.0941 0.3507
503 1 40.1408 4.5845 30.0263 -1.3059
504 1 42.7833 15.0880 1.7344 0.3657
505 1 5.8175 36.7824 7.7159 0.4444
506 1 39.0045 17.2833 38.0170 -1.0522
507 1 15.9561 10.4303 11.5755 0.4597
508 1 8.7303 0.7038 44.9384 1.4273
509 1 18.3819 40.0296 42.6284 -0.2187
510 1 41.2978 32.3523 9.3236 -0.0374
511 1 35.1890 35.2652 48.4869 -0.3034
512 1 48.9671 9.7272 14.6177 -1.5124
513 1 43.4235 2.7039 13.1558 0.8682
514 1 11.7863 19.9437 6.1438 1.1337
515 1 0.7288 27.0609 23.2050 -0.6403
516 1 20.2415 31.4577 24.6178 -0.0580
517 1 34.5010 28.1184 21.4811 -2.0762
518 1 14.9068 49.5970 4.7894 -0.4545
519 1 8.2931 14.4520 10.5312 -1.0898
520 1 26.7223 4.8499 18.3893 -1.3039
521 1 26.6988 47.1965 32.1549 0.1934
522 1 31.4414 15.1325 8.1462 0.0972
523 1 32.8797 48.5997 1.1228 -1.1195
524 1 40.8242 28.3481 13.7189 0.4206
525 1 18.1251 9.9208 23.0659 0.8982
526 1 4.3599 46.9767 35.2758 -1.9054
527 1 48.7083 39.4117 3.7012 0.6732
528 1 6.8182 36.1398 30.0010 -0.5326
529 1 29.4812 24.9322 15.6772 -0.0775
530 1 8.0033 16.9821 40.1361 0.2075
531 1 34.4995 25.2141 15.5977 -0.9106
532 1 19.2354 8.0201 2.4754 -0.6809
533 1 40.1192 14.6313 21.7399 0.6265
534 1 27.2799 20.5499 10.9145 -0.7456
535 1 40.9439 14.9027 7.2578 0.4343
536 1 3.0461 30.4628 7.3534 0.2142
537 1 10.2267 38.4255 26.3923 -1.1838
538 1 1.6980 19.7186 8.9326 -1.3607
539 1 22.0993 2.5646 34.2229 0.9430
540 1 9.4744 35.9859 43.9863 -1.2944
541 1 25.5161 12.2218 41.4325 0.2930
542 1 40.1298 7.2455 23.9927 -1.6861
543 1 32.3624 23.0110 31.8716 0.2414
544 1 29.0141 25.2324 49.7039 0.4803
545 1 49.9525 48.9281 5.6691 -0.5088
546 1 29.8241 49.4340 7.1757 2.2213
547 1 4.7347 17.9295 5.6901 0.1865
548 1 6.8753 48.0468 15.6950 -0.1338
549 1 45.9110 45.7465 21.8286 -1.0630
550 1 9.2811 1.4430 42.6493 -0.3645
551 1 4.7872 8.7069 27.2379 -0.2561
552 1 34.4464 38.0400 16.2113 -0.5040
553 1 25.8125 2.5633 45.5308 -0.6683
554 1 37.0456 15.0740 5.2058 0.0515
555 1 48.8821 23.5667 32.8302 0.7909
556 1 14.7250 14.7223 0.2384 -1.0166
557 1 5.8660 40.7187 9.9756 -1.1035
558 1 13.8289 37.6063 36.8987 1.0144
559 1 14.7081 13.8514 40.8943 1.8465
560 1 21.6366 30.7943 5.8282 0.9680
561 1 44.2546 25.1026 8.5435 1.4214
562 1 32.3681 39.2158 32.1527 -0.6182
563 1 14.0909 26.2251 41.9914 -1.4805
564 1 3.7587 27.1195 5.4961 0.3665
565 1 23.0729 6.3785 41.1871 0.0791
566 1 37.0084 28.9831 28.7156 0.8750
567 1 18.2850 45.9354 35.2643 0.0719
568 1 33.3475 12.9090 20.0497 1.0000
569 1 10.7252 23.5306 34.5393 0.0678
570 1 29.8901 25.7763 2.5129 0.5642
571 1 23.2374 16.2886 12.2162 -0.1823
572 1 21.7704 7.3045 0.8809 0.9483
573 1 40.0097 2.4835 23.4493 -0.1148
574 1 17.3326 27.7221 15.2001 -0.4906
575 1 10.2180 27.0463 20.7488 0.2469
576 1 43.3373 27.7675 11.4852 0.3338
577 1 14.9860 29.0950 16.8036 0.9920
578 1 23.7221 41.6760 5.8685 0.1567
579 1 7.4291 28.1127 37.4766 -0.2300
580 1 27.6162 41.9505 39.3652 -0.1372
581 1 13.4146 15.5879 28.3568 -0.6197
582 1 21.0411 44.8041 23.5756 -0.0160
583 1 31.9913 32.1602 14.8664 -0.5359
584 1 14.1899 25.9989 46.5055 -1.1495
585 1 36.3375 43.4369 46.2883 -0.3498
586 1 33.8063 1.2063 4.8658 -0.5376
587 1 35.2861 35.7125 26.3196 -0.1103
588 1 43.7342 13.1379 35.3641 -1.5323
589 1 37.3992 31.5111 43.4210 -0.8848
590 1 21.1422 6.3311 11.3379 -0.5960
591 1 17.2530 15.7838 38.2173 -0.2356
592 1 16.8818 41.8213 43.4089 1.2678
593 1 22.2548 10.5741 26.8613 -1.0343
594 1 19.7553 12.2156 29.9856 -1.0839
595 1 47.2857 32.2077 46.1052 1.7349
596 1 18.4998 3.1846 31.3249 0.2375
597 1 40.0015 1.9600 17.6287 2.0251
598 1 23.8416 22.9587 41.4755 -0.0641
599 1 4.8769 13.3750 40.0148 0.0078
600 1 25.5382 1.8326 23.8227 -0.4100
601 1 20.1903 41.6177 24.3007 -1.8526
602 1 14.5623 11.2115 41.2477 1.0963
603 1 3.3575 28.2684 0.1198 -0.2409
604 1 21.9158 49.1237 44.1143 -0.0201
605 1 37.6200 8.3244 19.8072 -0.6472
606 1 19.9430 15.1364 35.6697 -1.4812
607 1 7.7111 26.5978 13.4696 -0.7233
608 1 35.8250 46.9524 19.6266 0.6625
609 1 47.7262 37.0683 31.7686 2.6087
610 1 26.5393 26.1148 8.8305 0.9238
611 1 49.0754 34.9220 21.9209 1.9422
612 1 28.9891 31.8555 10.0278 -0.2095
613 1 3.2571 18.1799 8.7864 0.0393
614 1 30.2864 14.6664 17.0031 -0.2710
615 1 17.5809 47.7615 38.3620 1.0478
616 1 36.9335 47.5302 37.8279 0.5170
617 1 24.2485 0.1088 25.1186 -0.3405
618 1 10.4368 43.2234 27.5731 1.2456
619 1 39.2115 23.7172 5.6367 1.1526
620 1 47.3495 9.9037 39.3087 0.2425
621 1 21.5885 17.6473 7.8106 0.3270
622 1 15.7504 26.9424 34.0036 -0.6616
623 1 27.1672 32.9091 20.7753 -0.4489
624 1 41.3674 38.3600 23.1918 0.1761
625 1 47.7672 47.9770 20.4505 -1.5361
626 1 21.4532 15.9469 8.6712 -0.6901
627 1 47.8686 44.9744 25.4997 -0.6561
628 1 22.7189 46.7524 1.5789 -1.6143
629 1 3.7940 15.4433 49.7649 -0.3002
630 1 28.7892 49.8573 13.9636 -1.4797
631 1 26.8012 44.8058 35.6666 -1.3685
632 1 45.3508 26.0449 30.1418 1.5083
633 1 48.8301 4.0426 40.6458 2.2678
634 1 21.1479 43.0530 7.8477 -2.1712
635 1 37.8130 45.8732 18.3073 0.2734
636 1 12.7444 32.8186 30.5570 -0.6675
637 1 21.3520 23.1095 8.4827 -0.7105
638 1 1.4591 10.3073 15.5421 -0.2526
639 1 12.7742 14.6257 15.4948 1.6534
640 1 25.4219 44.4337 6.4693 0.8654
641 1 42.8244 32.0853 31.0796 -0.4709
642 1 24.8103 12.6033 32.5901 1.0418
643 1 17.6421 19.1089 48.7689 -0.3925
644 1 6.9045 9.0596 32.8680 -0.0189
645 1 34.4824 46.0914 43.6461 -0.5897
646 1 28.2530 22.5793 45.8718 -0.5434
647 1 20.5138 31.1822 47.1497 0.1701
648 1 29.6642 9.5453 18.9595 -0.4065
649 1 6.2275 6.2531 5.4326 0.2666
650 1 5.7317 49.6739 19.8158 0.2411
651 1 43.6952 11.4349 46.2830 -0.5898
652 1 28.2233 14.1082 24.0147 -0.1957
653 1 27.9430 45.9469 20.9172 0.4790
654 1 16.4046 46.7986 18.0377 0.3941
655 1 0.7305 10.4566 3.0430 -0.0268
656 1 36.2787 23.0278 1.8397 0.1781
657 1 25.7231 7.6143 13.9307 -0.0067
658 1 47.1092 36.3195 3.5736 0.4488
659 1 10.6920 31.0404 18.4052 -1.1426
660 1 11.8679 16.2157 36.1427 0.3285
661 1 46.9573 5.0242 40.7614 1.4964
662 1 13.3126 0.7596 13.6713 -0.3926
663 1 35.8968 36.8518 45.4464 1.1882
664 1 31.5822 18.0737 27.8532 0.4316
665 1 46.4331 5.1933 25.5497 -1.0035
666 1 15.6433 42.9297 0.7324 1.1269
667 1 10.4228 22.7559 18.3610 -2.0989
668 1 32.8736 6.6962 3.9469 0.1423
669 1 1.4650 25.0961 38.2909 0.3227
670 1 34.8575 7.0541 10.5380 1.4489
671 1 17.5692 2.4660 2.0448 1.7894
672 1 5.5994 18.5896 11.6170 0.0353
673 1 0.5681 30.6625 27.0660 -0.6617
674 1 23.8987 41.8483 37.8628 0.6558
675 1 47.7660 45.2248 28.0963 0.8317
676 1 20.3323 41.1254 14.7026 -1.1473
677 1 0.6770 11.5699 47.4591 0.0272
678 1 44.5718 22.9063 43.2063 0.1444
679 1 14.4139 18.6904 24.4670 1.0288
680 1 29.6680 2.7554 18.3481 0.9186
681 1 48.8339 35.3740 34.5663 0.1400
682 1 29.3344 22.5684 13.6729 0.7899
683 1 10.2153 14.9398 7.1595 -1.5570
684 1 14.3674 25.1576 29.4023 1.8491
685 1 11.4256 25.9087 15.1761 -0.8128
686 1 15.6121 24.4895 48.0906 1.5884
687 1 13.9240 38.9629 39.1967 -1.4188
688 1 31.5929 25.3059 14.1055 0.3374
689 1 28.4724 41.0976 8.6563 -0.2001
690 1 37.6335 47.8736 0.9207 -0.2460
691 1 38.0074 26.3945 2.1256 -0.1419
692 1 4.3505 5.7678 20.1039 -0.4716
693 1 47.3638 5.3570 11.2148 -0.2057
694 1 30.1167 47.0272 41.5728 -0.3871
695 1 28.7756 36.9483 32.9965 -0.3513
696 1 12.8813 16.4042 14.0806 -0.4462
697 1 17.1853 11.3420 49.4923 0.2773
698 1 39.3294 46.6859 39.4292 -0.0487
699 1 4.9762 22.2081 43.9047 0.1840
700 1 7.3097 19.8325 14.7541 -0.3114
701 1 44.8996 12.6611 41.3742 -0.3884
702 1 31.7585 6.0336 4.5993 -0.1999
703 1 19.1977 45.0155 24.8535 -0.4220
704 1 49.9057 11.8298 12.9502 -0.4200
705 1 45.2776 2.9950 31.5335 1.2540
706 1 8.1975 14.6363 31.7384 0.9104
707 1 22.6990 31.6183 17.1731 -1.6012
708 1 48.2214 3.3620 44.1462 0.4343
709 1 27.8699 35.2232 38.2315 1.0240
710 1 7.1897 48.2851 40.2975 -1.6298
711 1 0.9049 38.4158 49.7801 0.3065
712 1 21.4750 31.7753 12.2190 -1.9134
713 1 29.9040 40.7139 32.6442 -0.9437
714 1 32.4939 8.8297 10.9118 1.2359
715 1 40.6105 13.7213 38.5760 -1.4579
716 1 20.4729 1.8112 7.7939 0.8581
717 1 24.7822 2.5008 20.1479 -1.1619
718 1 14.6499 15.9863 45.7245 0.3543
719 1 28.2063 18.8040 18.8808 2.7320
720 1 5.5924 34.0960 20.9103 0.7925
721 1 11.3205 3.8778 17.0626 -2.7070
722 1 15.6374 32.3389 12.6838 0.2526
723 1 32.7980 41.7520 35.2849 -0.5090
724 1 16.4468 47.4530 31.9205 0.0362
725 1 5.8427 39.4836 12.2475 -0.1917
726 1 20.6036 14.7969 7.9993 -0.1785
727 1 49.1525 13.7528 29.1742 -0.9615
728 1 2.7644 18.1532 35.8040 0.0539
729 1 4.0447 31.4026 20.5622 -0.0966
730 1 24.0361 15.0797 42.8741 -0.4593
731 1 26.7769 4.0014 19.4418 -0.2510
732 1 8.4366 7.1626 34.8267 -1.5546
733 1 8.4881 26.9713 15.0501 -0.1870
734 1 10.6688 40.4854 3.2826 1.4066
735 1 7.4697 1.5344 25.1490 1.0389
736 1 34.7377 1.9995 35.6216 -0.2569
737 1 27.8980 2.7997 0.3016 0.1864
738 1 39.8678 4.0663 29.9353 -0.8242
739 1 0.6915 28.7382 31.9497 -0.4682
740 1 42.3976 3.8333 33.9351 -1.6182
741 1 26.1156 7.7127 0.1416 -1.5345
742 1 30.4352 16.9307 1.0752 0.1922
743 1 23.4510 5.0856 19.7050 1.4284
744 1 33.9400 3.5913 3.0706 0.0129
745 1 28.4652 9.7896 20.4759 -0.6659
746 1 49.7354 11.5351 33.9647 0.0821
747 1 22.9745 10.9966 21.0462 0.3588
748 1 12.9110 7.9882 46.2417 0.6938
749 1 49.9378 4.9621 5.2817 0.0814
750 1 27.1225 45.0961 37.3982 -0.1238
751 1 5.6934 38.0776 43.2956 1.8156
752 1 46.4032 16.0188 24.4783 -1.1000
753 1 41.1041 32.9889 13.7677 -1.6527
754 1 24.6326 10.9378 25.3216 0.4545
755 1 21.6264 41.9150 22.2139 1.4896
756 1 39.6880 36.0312 24.4997 0.4896
757 1 31.2150 18.5583 44.2016 -0.0023
758 1 35.1593 21.2658 7.2124 0.2789
759 1 20.2539 47.2881 0.7372 -0.2775
760 1 4.6170 26.0749 46.0205 -0.2360
761 1 16.7512 11.2915 39.2898 1.0783
762 1 43.6332 32.1168 8.1938 1.3014
763 1 25.5672 47.5392 43.1025 0.0684
764 1 49.4395 9.7440 4.5140 -0.3728
765 1 15.4095 0.0067 6.0250 -1.2496
766 1 27.9786 18.2828 44.9279 -0.2977
767 1 3.5823 32.7751 1.4331 1.1797
768 1 40.6698 10.9764 41.1650 0.1174
769 1 35.3856 13.9265 46.1284 -0.5048
770 1 9.9959 5.6882 1.7442 0.0379
771 1 3.5953 35.2330 14.3368 1.0507
772 1 36.9205 36.0271 33.9476 1.6567
773 1 47.0232 48.2126 46.8489 -0.0593
774 1 36.7134 18.1164 10.3419 0.8529
775 1 11.9803 2.2294 5.9787 -2.2758
776 1 36.4751 32.7277 0.9539 0.6117
777 1 9.7616 9.7849 43.1222 -0.8832
778 1 1.3555 48.5947 41.3243 -0.6078
779 1 22.3246 2.1129 17.3757 1.4712
780 1 11.0064 40.3618 19.4412 -0.4787
781 1 40.5475 4.9224 43.4938 2.2099
782 1 18.5451 38.8969 31.0788 2.2212
783 1 10.1300 18.7634 25.3168 -0.6561
784 1 8.0292 44.8061 19.6353 2.0831
785 1 32.5122 45.1393 5.1238 -1.1798
786 1 25.4227 0.1041 42.2554 0.6931
787 1 32.1016 9.5690 37.5143 0.0383
788 1 5.6833 13.3588 46.5888 0.1385
789 1 20.5047 3.1529 31.7413 0.5574
790 1 29.9636 28.6761 34.4713 -1.2619
791 1 37.2535 37.5193 22.0546 0.5523
792 1 18.6788 27.9617 48.9534 -0.0897
793 1 47.1265 46.0058 14.1736 -0.8567
794 1 13.2945 28.8594 5.4911 -1.0763
795 1 39.4223 10.1956 32.1183 0.0921
796 1 31.2395 40.9087 36.1792 -2.6787
797 1 15.1244 34.5537 9.4569 -1.3752
798 1 42.4858 18.8105 23.4981 1.3065
799 1 32.4859 33.4273 10.2330 -0.4321
800 1 14.9533 19.0440 3.0252 0.2916
801 1 43.6437 42.3738 25.6625 0.2362
802 1 48.9086 23.1491 32.3595 0.2964
803 1 47.2840 8.9015 2.6192 0.2210
804 1 21.5965 4.2088 9.0784 -0.9481
805 1 40.8258 5.2083 2.4429 1.1162
806 1 41.2692 17.9846 25.9099 -0.9468
807 1 35.5655 9.4135 1.0555 0.9737
808 1 39.0902 31.1460 0.9028 -1.6095
809 1 16.9401 7.6149 34.8475 -2.1786
810 1 2.7771 42.7803 39.1374 0.1823
811 1 10.6643 16.2545 19.4102 -0.7128
812 1 0.2980 19.8013 4.8873 1.0209