ITEM: TIMESTEP
0
ITEM: NUMBER OF ATOMS
1500
ITEM: BOX BOUNDS pp pp pp
0.0 50.0
0.0 50.0
0.0 50.0
ITEM: ATOMS id type x y z gnn_topology_err
1 1 19.4687 11.2763 18.5926
2 1 18.5710 42.0917 10.1759
3 1 37.6815 17.4354 48.4877
4 1 28.0708 4.5629 30.0713
5 1 43.2791 18.7458 6.8314
6 1 24.4143 42.2235 19.3716
7 1 3.3987 13.7512 33.8396
8 1 35.0076 47.2279 28.4111
9 1 41.2688 23.3772 30.8912
10 1 16.6143 23.9440 28.6450
11 1 12.4340 21.3134 47.2122
12 1 2.6346 34.2304 22.7807
13 1 41.7573 41.3587 35.5020
14 1 16.2154 10.2145 16.7593
15 1 38.5088 20.6613 40.6228
16 1 20.4590 25.8292 24.8456
17 1 1.0809 5.1025 1.8639
18 1 22.2610 36.3538 49.0686
19 1 3.7783 2.0300 0.1358
20 1 30.9946 11.5718 30.7535
21 1 28.6364 39.3708 33.0950
22 1 47.4218 43.3132 1.2339
23 1 34.7980 24.6992 1.0055
24 1 30.8325 11.6893 14.6705
25 1 11.2841 16.0958 19.6213
26 1 14.2871 29.5839 45.9053
27 1 11.6236 32.9239 5.1023
28 1 7.6905 48.6259 24.0559
29 1 42.9376 3.5514 28.4192
30 1 26.3401 4.1720 37.7492
31 1 30.3048 49.3788 1.2607
32 1 38.4981 7.4268 37.5143
33 1 17.0556 28.3339 26.0773
34 1 37.2599 27.1133 7.3994
35 1 29.6841 31.5652 4.2410
36 1 27.3220 17.9922 1.7744
37 1 38.7895 6.6208 15.6861
38 1 16.6439 46.0584 28.1694
39 1 27.5562 38.9650 14.1409
40 1 24.2312 6.8480 48.6446
41 1 45.1906 15.0448 7.2569
42 1 4.9171 8.0597 25.0164
43 1 41.2050 21.8157 7.3405
44 1 42.4486 12.6275 6.2681
45 1 36.8713 7.8982 25.6075
46 1 34.8951 26.5858 30.5478
47 1 47.5040 19.8698 37.1165
48 1 46.4035 36.9808 25.0092
49 1 7.0074 30.8988 10.9041
50 1 19.4671 0.7935 17.3548
51 1 17.0920 17.6443 35.4979
52 1 8.4996 10.7479 33.8449
53 1 30.1332 19.9782 30.9700
54 1 44.3373 33.8930 32.7456
55 1 23.0561 23.8958 27.4601
56 1 1.4423 34.1677 37.9696
57 1 29.1718 49.4362 42.9516
58 1 42.8036 12.3699 17.9490
59 1 2.3585 15.8048 4.7040
60 1 33.1224 38.2852 6.9868
61 1 -0.0135 21.4238 18.4904
62 1 7.0225 5.3473 32.9850
63 1 4.1122 3.1248 46.3021
64 1 15.2436 23.6984 7.4753
65 1 49.0598 23.4477 6.8628
66 1 27.1820 25.0070 17.5060
67 1 36.2134 27.2972 13.3503
68 1 29.5546 18.2381 0.1310
69 1 48.8206 0.5714 31.2940
70 1 28.5738 34.7288 27.6029
71 1 5.3787 21.3856 46.1836
72 1 46.7117 29.4053 0.5372
73 1 25.5910 6.1162 46.6449
74 1 33.3662 23.6842 47.0841
75 1 17.8368 15.6385 1.0738
76 1 49.1730 43.6727 7.6089
77 1 41.8449 46.2740 29.6413
78 1 22.1054 23.7087 39.0486
79 1 29.0908 27.2367 32.1849
80 1 6.8533 49.3266 45.4165
81 1 34.6901 25.5880 23.0175
82 1 32.1902 10.5028 5.1470
83 1 17.2811 44.6175 12.8771
84 1 48.9458 33.1108 34.7153
85 1 12.5749 41.0521 46.5397
86 1 21.5073 5.4250 1.6308
87 1 2.7484 47.2069 37.8302
88 1 41.0591 26.8950 48.7966
89 1 42.6799 45.3962 7.9229
90 1 45.5029 33.1761 16.1933
91 1 2.1457 13.0848 43.8600
92 1 5.4296 4.5436 28.3822
93 1 48.9499 42.2388 6.3150
94 1 33.1748 25.2411 33.4885
95 1 6.6123 7.2997 7.8967
96 1 29.8162 28.8828 27.9649
97 1 29.1981 41.8296 49.5424
98 1 44.1847 43.0617 29.4930
99 1 1.7546 15.2327 0.8172
100 1 13.2639 9.4822 8.8781
101 1 24.2994 29.7304 42.6349
102 1 35.0055 27.5484 12.7573
103 1 21.6752 9.4802 23.0216
104 1 25.1911 3.2834 32.9161
105 1 37.0320 7.1275 48.0761
106 1 45.5767 18.1838 8.6253
107 1 39.6442 23.1352 5.1213
108 1 5.2895 29.9557 39.2768
109 1 6.2968 26.9184 10.9098
110 1 11.5646 11.9670 7.4780
111 1 19.8709 12.9783 28.0831
112 1 0.1180 49.5472 39.8972
113 1 0.5336 39.2228 26.6523
114 1 14.6074 20.4540 43.8149
115 1 32.9557 45.5365 0.2161
116 1 24.1196 37.1739 24.3763
117 1 36.3114 7.5841 28.6936
118 1 45.0868 10.0411 37.9443
119 1 34.4622 23.9436 3.1226
120 1 9.6993 8.3734 20.8065
121 1 17.2642 49.4598 37.1444
122 1 34.4538 36.9481 20.3233
123 1 34.9048 34.6632 35.2096
124 1 40.1819 5.5918 47.1488
125 1 0.3806 47.1789 6.7992
126 1 12.3363 24.8706 20.9079
127 1 37.7418 43.4976 39.5238
128 1 0.4168 0.1819 14.7856
129 1 46.2807 34.0335 35.3946
130 1 1.8463 26.2729 35.6385
131 1 3.3344 12.0510 48.0246
132 1 43.1287 33.2634 14.5054
133 1 18.5506 8.0737 37.1131
134 1 40.9577 2.9729 48.0064
135 1 45.8039 35.1922 28.2161
136 1 29.4468 43.8984 32.3753
137 1 23.8178 4.0062 0.5783
138 1 30.7656 34.8934 16.5531
139 1 34.1926 22.4299 8.4098
140 1 5.4894 46.5274 36.7549
141 1 12.0474 30.7885 42.8144
142 1 42.3540 3.9192 27.2349
143 1 35.8994 8.7275 42.4550
144 1 34.5204 38.5311 1.9393
145 1 35.5676 12.5094 6.0655
146 1 22.3182 9.6414 22.7336
147 1 24.3733 6.9052 13.2450
148 1 43.4100 12.0185 47.2108
149 1 21.0310 3.4917 14.7050
150 1 14.5250 38.5984 42.8596
151 1 33.0565 41.8645 8.3615
152 1 11.5376 6.7895 5.9158
153 1 47.6188 33.5664 21.7741
154 1 6.2150 4.0050 34.9992
155 1 1.9660 43.1972 13.3055
156 1 45.2117 41.3792 28.7046
157 1 22.0051 1.3266 27.1007
158 1 0.9685 33.1230 11.0293
159 1 36.1799 28.9528 19.0982
160 1 20.0432 41.0933 0.5954
161 1 48.8695 3.7939 43.1725
162 1 2.0030 39.2534 45.7773
163 1 16.5764 40.0010 16.9883
164 1 11.9739 8.3117 23.1559
165 1 38.3421 21.1060 40.1246
166 1 24.7256 40.8980 6.4199
167 1 26.9356 36.4186 31.9089
168 1 17.4130 10.1398 37.9753
169 1 23.3119 17.2600 14.7899
170 1 42.7148 3.0993 6.6004
171 1 32.9537 32.4294 23.9677
172 1 0.4579 46.4039 13.2671
173 1 27.6893 3.0413 30.7569
174 1 28.4398 20.8838 5.2701
175 1 28.9867 9.6131 23.3470
176 1 21.6702 36.3445 43.3946
177 1 44.4507 44.6882 44.6363
178 1 26.2641 4.0887 7.0249
179 1 36.4753 14.3295 38.0427
180 1 46.4534 13.1530 22.4973
181 1 38.0958 10.0392 40.3439
182 1 47.1427 49.1774 12.5661
183 1 41.5500 37.5386 2.0247
184 1 45.7471 15.7567 14.4294
185 1 27.3512 48.0299 45.4724
186 1 4.1971 13.9495 23.0695
187 1 35.0007 48.3169 9.0553
188 1 45.4466 29.2261 32.9703
189 1 16.7347 18.4497 39.4451
190 1 15.0279 33.8455 21.2238
191 1 15.8977 49.8126 28.9869
192 1 2.1435 29.2206 43.6182
193 1 42.0487 35.7567 37.0748
194 1 37.4484 35.3452 23.3395
195 1 30.0382 47.4899 14.9104
196 1 4.6580 19.0774 40.1034
197 1 47.2471 38.0838 43.5405
198 1 18.8245 10.2058 2.0480
199 1 18.8710 33.5264 5.1258
200 1 33.3693 45.4951 34.7971
201 1 32.1170 19.7241 12.6701
202 1 37.5886 30.5927 37.8877
203 1 5.2747 9.6693 31.9932
204 1 46.2097 26.5062 18.8012
205 1 47.3401 22.7315 8.5293
206 1 30.9034 46.8006 23.1590
207 1 47.6483 16.1894 20.2337
208 1 39.1107 34.3019 33.3682
209 1 34.3462 16.1037 34.7894
210 1 25.2677 0.7940 35.2594
211 1 49.1182 3.5246 2.9727
212 1 13.1873 41.1737 38.7356
213 1 42.7434 33.5721 3.8595
214 1 31.0861 2.0625 30.0868
215 1 8.0989 23.3646 14.1727
216 1 32.1321 11.7411 7.7260
217 1 8.8105 46.5507 31.0997
218 1 7.9724 21.7337 21.8417
219 1 45.6301 16.5963 47.5154
220 1 38.3170 7.4992 2.7740
221 1 1.0495 47.0742 46.1754
222 1 39.7678 10.7931 45.1596
223 1 23.2324 2.7023 23.4907
224 1 46.1165 2.6241 43.1669
225 1 33.7764 49.1645 15.4426
226 1 13.5733 12.4207 28.8829
227 1 32.2708 34.6923 41.2480
228 1 5.1015 32.3716 35.9012
229 1 9.6612 42.7907 13.3812
230 1 23.1580 10.5207 33.7236
231 1 39.5161 23.1375 47.2968
232 1 4.8469 13.6297 41.6645
233 1 27.8740 21.7388 48.5738
234 1 43.5980 48.3278 5.5208
235 1 17.3627 27.0358 0.9594
236 1 36.8572 26.3108 43.9822
237 1 14.6528 13.5830 16.3562
238 1 26.6891 23.6859 9.8329
239 1 47.4943 19.4439 43.5635
240 1 33.4093 47.5363 5.1506
241 1 18.6839 46.8392 19.0142
242 1 32.5109 32.4441 35.1511
243 1 2.4923 45.6924 46.4422
244 1 27.1474 41.9700 14.7724
245 1 44.1795 18.6297 44.3144
246 1 43.0675 17.2179 22.9267
247 1 4.9356 29.9719 29.4798
248 1 41.7121 49.0211 6.0603
249 1 40.7386 25.5555 18.7674
250 1 41.8015 38.8680 7.2418
251 1 5.1421 14.9001 45.4838
252 1 39.8416 4.9172 23.3065
253 1 23.1362 20.5826 4.4237
254 1 38.5743 8.8610 5.4517
255 1 0.3600 19.9053 33.0750
256 1 24.1501 38.9425 4.6424
257 1 30.2700 26.1782 9.0357
258 1 40.3972 47.8203 41.4148
259 1 26.7462 27.3037 43.3935
260 1 10.7843 12.0460 46.9656
261 1 39.4660 22.3250 19.9741
262 1 39.7954 2.5444 34.9250
263 1 46.0182 40.9088 46.7333
264 1 7.1455 11.9659 30.6249
265 1 40.5072 49.2823 34.0292
266 1 21.5772 18.2177 39.1491
267 1 2.6883 18.7573 19.7396
268 1 6.1500 8.8518 39.8434
269 1 12.6316 49.7706 29.8887
270 1 39.0053 15.9555 48.7329
271 1 23.4149 14.6608 26.1977
272 1 15.1802 11.9967 21.8573
273 1 7.0799 4.4055 24.8036
274 1 33.8833 7.7572 35.4375
275 1 47.8327 24.5188 29.7458
276 1 5.8181 0.8239 9.8000
277 1 3.9513 12.9108 16.6055
278 1 19.1187 25.0964 14.2720
279 1 36.0932 21.5442 23.5481
280 1 18.6298 16.9978 16.9886
281 1 41.9900 46.4447 36.9780
282 1 5.4510 21.9578 12.0320
283 1 40.5103 19.1499 43.8154
284 1 39.0229 13.3645 21.1614
285 1 12.4370 4.9844 8.8391
286 1 0.4849 49.3045 30.9318
287 1 47.3981 5.8395 26.3317
288 1 40.2334 16.6683 7.7996
289 1 45.4389 38.8273 19.0548
290 1 27.5089 10.0258 6.8234
291 1 3.5908 46.7284 41.9738
292 1 42.1874 20.9474 17.3834
293 1 22.1943 25.9410 30.5004
294 1 19.9093 14.7281 9.0134
295 1 34.5070 8.3494 21.1465
296 1 8.6513 40.7108 41.5936
297 1 21.7609 45.2543 39.1371
298 1 3.8103 29.6077 6.9338
299 1 36.9888 28.2191 12.5481
300 1 42.6760 27.9782 8.5019
301 1 46.2744 1.3833 37.0209
302 1 48.5214 35.5037 19.3811
303 1 42.5266 4.9076 5.1121
304 1 3.7424 27.0589 17.0389
305 1 17.9084 19.0808 8.9878
306 1 18.3412 13.0047 30.2225
307 1 11.3720 48.1798 26.1606
308 1 20.9345 19.2614 39.3368
309 1 31.7845 13.2477 1.8329
310 1 2.6472 43.1612 45.0496
311 1 9.0347 45.6613 0.8520
312 1 37.1216 26.5357 13.9480
313 1 8.4223 22.4636 2.9990
314 1 22.1528 47.0682 24.3651
315 1 23.7632 27.1335 36.0402
316 1 33.4060 36.2164 47.5826
317 1 27.7583 43.5223 24.7540
318 1 10.9850 38.0756 46.6199
319 1 36.1542 31.2905 45.0853
320 1 31.7118 49.2849 34.2499
321 1 24.5003 16.9766 46.4566
322 1 29.6058 36.3820 16.7037
323 1 21.5450 4.8597 47.4708
324 1 46.7112 24.1337 41.5389
325 1 4.2548 16.4137 1.2396
326 1 46.3551 26.7464 48.5169
327 1 43.1392 46.9454 11.7107
328 1 5.5405 41.1798 3.9837
329 1 46.8709 5.1990 25.8702
330 1 48.9579 43.6251 16.7395
331 1 49.3163 13.6243 18.8732
332 1 30.1656 40.5604 45.2494
333 1 48.0633 15.9459 33.7497
334 1 7.5394 31.2803 47.0125
335 1 2.5044 0.5964 27.1058
336 1 3.3075 11.6301 1.5131
337 1 26.9644 26.9916 22.4508
338 1 20.1606 35.2754 2.5297
339 1 13.6966 21.4511 48.6844
340 1 20.4147 14.6804 2.2818
341 1 11.6569 5.2961 29.9804
342 1 29.8852 4.9053 25.3660
343 1 33.6025 26.9617 40.7500
344 1 24.7736 41.2464 39.0890
345 1 33.8561 41.6268 15.2197
346 1 22.0007 21.8286 36.2935
347 1 38.2410 18.3415 2.0711
348 1 34.5471 22.1991 38.6509
349 1 45.7637 32.5467 27.6160
350 1 3.0657 44.1840 49.5519
351 1 46.6419 13.2562 23.7422
352 1 49.2967 4.8666 19.6025
353 1 36.9870 8.5105 21.6735
354 1 7.6517 45.6825 44.9811
355 1 32.8867 30.4861 19.5396
356 1 31.6311 47.0084 34.6238
357 1 34.7997 42.0313 36.2872
358 1 22.3683 31.4368 7.7107
359 1 28.3389 11.3233 46.4404
360 1 45.0157 45.8142 22.0083
361 1 19.8517 28.0211 7.4819
362 1 33.5349 38.8757 26.5073
363 1 45.2092 13.6401 27.6700
364 1 46.3840 30.6133 15.5000
365 1 40.5474 34.8662 22.4918
366 1 42.3134 22.3153 47.9633
367 1 2.0095 30.7771 39.8795
368 1 47.6244 21.2958 39.5813
369 1 22.8455 37.7885 13.2538
370 1 18.1672 40.4771 44.2119
371 1 4.2420 29.7145 24.0349
372 1 1.5407 10.8502 1.1263
373 1 33.9088 25.9775 21.5170
374 1 16.3732 43.9238 47.1042
375 1 21.7020 4.0912 49.7621
376 1 39.5772 38.0683 48.3608
377 1 30.8049 31.1727 29.3230
378 1 18.7103 27.8663 48.3361
379 1 48.2605 5.5313 27.9846
380 1 45.7423 4.3166 15.0297
381 1 0.1323 23.3125 47.9987
382 1 20.0611 41.2522 5.3338
383 1 14.8746 32.2770 30.7551
384 1 33.5317 49.1778 34.1961
385 1 46.1359 46.0745 23.8500
386 1 36.4780 17.5180 34.3638
387 1 13.5983 30.5285 14.7702
388 1 30.3494 5.1840 16.9872
389 1 13.8857 18.8450 42.4069
390 1 14.4205 19.1142 13.2336
391 1 14.3747 34.1693 29.7197
392 1 43.4922 1.8770 3.7316
393 1 36.4325 28.8010 41.6273
394 1 21.6423 40.1517 21.0297
395 1 38.3378 34.8839 18.0692
396 1 13.1527 14.8895 48.9597
397 1 23.3838 48.7141 28.9515
398 1 2.1631 27.4950 41.1552
399 1 36.1509 23.3600 5.5379
400 1 43.8626 36.0296 30.1857
401 1 30.2799 7.7287 13.3024
402 1 29.8714 46.3550 22.1477
403 1 26.5711 2.2913 9.3344
404 1 17.4718 31.7772 19.4700
405 1 29.4675 4.2802 11.3326
406 1 33.5984 10.4180 22.1423
407 1 29.7014 4.2393 17.7924
408 1 15.8889 3.1508 42.8345
409 1 7.5089 25.7385 21.9537
410 1 7.0212 49.0172 4.2287
411 1 10.2081 46.9457 41.7131
412 1 2.3003 47.5783 36.7933
413 1 46.6685 40.7266 26.0538
414 1 27.3025 0.4362 39.6304
415 1 41.2210 6.9447 35.7491
416 1 17.2969 38.5107 1.7160
417 1 19.2890 5.0256 10.5582
418 1 33.6181 5.3376 30.3039
419 1 31.2966 47.8598 21.9496
420 1 38.7089 7.1280 35.7697
421 1 25.3149 5.8160 46.1317
422 1 39.2727 5.6014 8.1086
423 1 46.9751 45.1081 49.8745
424 1 48.9518 14.8894 46.6019
425 1 19.2489 43.4927 49.1067
426 1 27.5849 23.1588 23.8803
427 1 39.4103 9.4736 25.9929
428 1 46.1253 25.2467 6.1111
429 1 6.8887 32.2776 12.6565
430 1 32.7425 43.5443 46.1085
431 1 17.3513 29.1783 1.9116
432 1 28.1816 46.9738 19.6412
433 1 49.6616 24.4366 19.0310
434 1 35.9567 44.5200 18.2946
435 1 37.4333 47.1674 36.0908
436 1 10.5901 29.0283 5.6555
437 1 33.2726 8.0696 42.5213
438 1 30.5281 0.6419 12.9649
439 1 41.3017 9.8591 44.5487
440 1 36.2711 25.6804 48.4613
441 1 26.8684 20.4898 44.4967
442 1 48.6308 41.3439 13.1024
443 1 23.5304 17.1777 13.6261
444 1 21.4304 2.0186 30.6833
445 1 1.4095 48.7636 28.3325
446 1 20.2965 2.6245 17.8810
447 1 2.3128 10.2432 8.6212
448 1 14.8530 3.7195 24.9685
449 1 11.9107 15.5282 23.5971
450 1 19.2510 29.8647 29.5120
451 1 8.8667 38.6967 22.4283
452 1 40.1776 38.8256 40.5191
453 1 13.2155 41.1823 21.2463
454 1 40.5686 38.3491 43.7759
455 1 1.9664 28.6630 20.2762
456 1 37.8589 28.0559 18.9511
457 1 48.5231 45.2015 22.6357
458 1 16.2696 20.9006 48.1887
459 1 40.7248 35.8957 14.5005
460 1 46.4752 31.2091 31.6640
461 1 6.5944 42.5565 23.8141
462 1 18.5668 28.4401 25.6187
463 1 27.7213 27.6245 15.4458
464 1 10.3799 46.3974 14.4735
465 1 34.7933 27.6549 25.6902
466 1 24.7345 38.5285 25.9677
467 1 19.3561 39.3405 0.6913
468 1 16.9293 25.3337 40.9740
469 1 11.1639 48.7934 9.8637
470 1 8.5075 10.9359 5.3782
471 1 46.0382 41.2349 20.6051
472 1 2.6968 2.6754 9.1915
473 1 8.4447 30.6816 17.7009
474 1 42.8783 31.3469 49.5908
475 1 2.1637 42.8031 35.0212
476 1 30.3828 41.9992 48.0470
477 1 25.9729 12.6214 16.3049
478 1 16.2444 33.4491 47.1767
479 1 31.9783 10.7857 18.6347
480 1 42.0415 21.3868 11.8503
481 1 44.2806 12.3513 35.1456
482 1 22.2485 48.4013 27.8252
483 1 39.8003 17.3493 49.1829
484 1 27.3745 13.7349 25.1879
485 1 44.0900 15.7069 44.9638
486 1 32.1330 44.0352 25.0356
487 1 32.1521 29.4592 10.5848
488 1 44.1310 44.4123 34.2725
489 1 26.0791 32.5328 3.1998
490 1 8.8892 27.9788 41.0689
491 1 42.0578 43.8936 35.7688
492 1 16.9672 39.0312 30.2348
493 1 21.6261 10.5143 17.9676
494 1 13.1076 11.9903 48.4159
495 1 25.7353 29.1329 0.5886
496 1 39.7608 36.8756 1.1349
497 1 1.3756 42.1782 26.9910
498 1 39.4486 26.2303 28.4722
499 1 49.6698 49.7138 17.4840
500 1 25.3548 31.7202 29.1563
501 1 23.8650 31.3869 25.8844
502 1 2.7043 5.2550 26.0816
503 1 40.1784 4.5784 29.9957
504 1 42.8027 15.1042 1.7683
505 1 5.8489 36.8093 7.7230
506 1 38.9590 17.2434 37.9904
507 1 15.9418 10.3881 11.5985
508 1 8.7505 0.7013 44.9806
509 1 18.3724 40.0390 42.5803
510 1 41.3473 32.3710 9.3512
511 1 35.1919 35.3051 48.4487
512 1 48.9502 9.7406 14.6187
513 1 43.3786 2.7024 13.1606
514 1 11.8079 19.9780 6.0998
515 1 0.7677 27.0965 23.1754
516 1 20.1960 31.4554 24.6034
517 1 34.4778 28.1305 21.4885
518 1 14.9320 49.6201 4.8065
519 1 8.3003 14.4316 10.5674
520 1 26.6917 4.8343 18.3742
521 1 26.6518 47.2363 32.1080
522 1 31.4480 15.1593 8.1023
523 1 32.8421 48.6133 1.1637
524 1 40.7953 28.3657 13.7012
525 1 18.1160 9.9627 23.0452
526 1 4.3442 46.9312 35.3086
527 1 48.6728 39.3994 3.7183
528 1 6.7856 36.1023 30.0406
529 1 29.4505 24.9273 15.6390
530 1 8.0275 16.9561 40.1642
531 1 34.4942 25.2289 15.6369
532 1 19.2726 8.0194 2.4496
533 1 40.0964 14.6705 21.7134
534 1 27.2648 20.5816 10.8760
535 1 40.9411 14.9150 7.2706
536 1 3.0474 30.4598 7.3897
537 1 10.2610 38.4049 26.3603
538 1 1.7236 19.7651 8.9250
539 1 22.0592 2.5852 34.1764
540 1 9.4980 35.9687 43.9957
541 1 25.4720 12.2279 41.4119
542 1 40.0806 7.2197 24.0334
543 1 32.3700 23.0407 31.9009
544 1 29.0136 25.1869 49.7511
545 1 49.9453 48.9019 5.6312
546 1 29.8466 49.3886 7.1866
547 1 4.7363 17.9595 5.7289
548 1 6.8827 48.0877 15.7367
549 1 45.8655 45.7345 21.7790
550 1 9.2895 1.4437 42.6423
551 1 4.8171 8.7011 27.2561
552 1 34.4937 38.0471 16.2168
553 1 25.8486 2.5519 45.5709
554 1 36.9962 15.1155 5.2375
555 1 48.9082 23.5350 32.7857
556 1 14.7564 14.7439 0.2032
557 1 5.8248 40.6940 10.0041
558 1 13.7817 37.5840 36.8981
559 1 14.7132 13.8392 40.8760
560 1 21.6852 30.7997 5.8749
561 1 44.2796 25.1263 8.5304
562 1 32.3530 39.2149 32.1156
563 1 14.1070 26.1967 41.9995
564 1 3.7261 27.1178 5.4719
565 1 23.0725 6.3931 41.2156
566 1 37.0210 29.0245 28.6669
567 1 18.2631 45.9480 35.2697
568 1 33.3439 12.9532 20.0929
569 1 10.7721 23.5402 34.5080
570 1 29.9225 25.7872 2.5533
571 1 23.2809 16.3337 12.1690
572 1 21.7327 7.3264 0.8530
573 1 39.9702 2.4373 23.4263
574 1 17.3626 27.7714 15.1712
575 1 10.2605 27.0002 20.7099
576 1 43.3083 27.7499 11.4725
577 1 15.0330 29.1139 16.8184
578 1 23.6772 41.6414 5.8592
579 1 7.4708 28.1321 37.4738
580 1 27.5938 41.9167 39.4052
581 1 13.4393 15.6190 28.3713
582 1 21.0272 44.8301 23.5695
583 1 31.9571 32.1306 14.9035
584 1 14.2277 25.9591 46.5524
585 1 36.3155 43.4760 46.3117
586 1 33.8206 1.2230 4.8477
587 1 35.3080 35.7468 26.3219
588 1 43.7285 13.1209 35.3307
589 1 37.3798 31.4735 43.4671
590 1 21.1918 6.3525 11.3573
591 1 17.2219 15.8112 38.2399
592 1 16.8372 41.8393 43.4338
593 1 22.2198 10.6165 26.8978
594 1 19.8008 12.1891 29.9793
595 1 47.3262 32.1733 46.0635
596 1 18.5479 3.1680 31.2846
597 1 40.0011 1.9263 17.6060
598 1 23.8771 22.9361 41.4549
599 1 4.8464 13.3606 40.0250
600 1 25.5780 1.8533 23.8639
601 1 20.2266 41.6525 24.2880
602 1 14.5860 11.2580 41.2194
603 1 3.3696 28.2317 0.1183
604 1 21.8667 49.1465 44.1590
605 1 37.5913 8.3168 19.7679
606 1 19.8935 15.1366 35.6257
607 1 7.7545 26.6165 13.4557
608 1 35.8685 46.9763 19.6511
609 1 47.6915 37.1179 31.7846
610 1 26.5345 26.1530 8.8135
611 1 49.0999 34.9429 21.8740
612 1 28.9518 31.8792 10.0115
613 1 3.2661 18.1636 8.8248
614 1 30.3075 14.6287 16.9655
615 1 17.5951 47.7125 38.3443
616 1 36.9767 47.4876 37.8491
617 1 24.2128 0.1268 25.1065
618 1 10.4559 43.2099 27.5585
619 1 39.1767 23.7099 5.6159
620 1 47.3704 9.9125 39.3194
621 1 21.6071 17.6786 7.7953
622 1 15.7407 26.9406 34.0350
623 1 27.2118 32.9409 20.7697
624 1 41.3631 38.3817 23.1939
625 1 47.7234 47.9641 20.4712
626 1 21.4971 15.9188 8.6219
627 1 47.8697 44.9620 25.4860
628 1 22.7498 46.7204 1.5835
629 1 3.7768 15.4622 49.7161
630 1 28.7885 49.8459 14.0100
631 1 26.8227 44.8424 35.6850
632 1 45.3090 26.0286 30.1596
633 1 48.8190 4.0640 40.6192
634 1 21.1127 43.0912 7.8945
635 1 37.8138 45.8337 18.3374
636 1 12.7844 32.8629 30.5411
637 1 21.3131 23.1267 8.5304
638 1 1.4979 10.3251 15.5228
639 1 12.7902 14.6138 15.4637
640 1 25.4106 44.4289 6.4686
641 1 42.7809 32.0722 31.1210
642 1 24.7763 12.5617 32.5486
643 1 17.5960 19.1192 48.7626
644 1 6.9250 9.0508 32.8237
645 1 34.4337 46.0883 43.6612
646 1 28.2045 22.5436 45.8247
647 1 20.5310 31.1691 47.1144
648 1 29.6282 9.5140 18.9122
649 1 6.2701 6.2146 5.3925
650 1 5.7590 49.6900 19.7903
651 1 43.6540 11.4483 46.3172
652 1 28.2289 14.1014 23.9825
653 1 27.8989 45.9833 20.8706
654 1 16.4269 46.8056 18.0774
655 1 0.7257 10.4679 2.9983
656 1 36.2735 23.0342 1.8349
657 1 25.6768 7.6269 13.9312
658 1 47.0813 36.3610 3.5582
659 1 10.6802 31.0022 18.4201
660 1 11.8810 16.2429 36.1275
661 1 46.9924 5.0450 40.7221
662 1 13.2789 0.7729 13.6503
663 1 35.8699 36.8694 45.4187
664 1 31.5792 18.1018 27.8097
665 1 46.4677 5.2295 25.5932
666 1 15.6737 42.9094 0.7203
667 1 10.4174 22.7873 18.3300
668 1 32.8717 6.7240 3.9010
669 1 1.4705 25.1343 38.2589
670 1 34.8904 7.0355 10.4904
671 1 17.6059 2.4847 2.0372
672 1 5.5924 18.5396 11.5745
673 1 0.5282 30.6700 27.0287
674 1 23.8787 41.8958 37.8181
675 1 47.7930 45.2223 28.0914
676 1 20.3629 41.1431 14.7096
677 1 0.6590 11.5702 47.5009
678 1 44.5850 22.9167 43.1912
679 1 14.4419 18.6924 24.4791
680 1 29.7005 2.7146 18.3600
681 1 48.8692 35.4144 34.5620
682 1 29.3422 22.5506 13.6615
683 1 10.2555 14.9433 7.1470
684 1 14.3442 25.1601 29.3753
685 1 11.4232 25.9415 15.1294
686 1 15.5746 24.5102 48.1063
687 1 13.9540 39.0098 39.2149
688 1 31.6271 25.2589 14.1320
689 1 28.5197 41.0926 8.6316
690 1 37.6313 47.8540 0.9088
691 1 38.0242 26.3698 2.1403
692 1 4.3702 5.8160 20.0902
693 1 47.3591 5.3537 11.1878
694 1 30.0868 47.0325 41.5924
695 1 28.8062 36.9797 33.0026
696 1 12.8434 16.3789 14.1120
697 1 17.1982 11.3146 49.4705
698 1 39.2847 46.7199 39.4652
699 1 4.9813 22.1814 43.9110
700 1 7.3023 19.8320 14.7440
701 1 44.9211 12.7044 41.3410
702 1 31.7358 6.0419 4.6024
703 1 19.1486 44.9922 24.8334
704 1 49.9479 11.8482 12.9746
705 1 45.2649 2.9516 31.5322
706 1 8.2003 14.6279 31.7116
707 1 22.7231 31.5833 17.1581
708 1 48.1973 3.3962 44.1733
709 1 27.8304 35.2232 38.2078
710 1 7.1568 48.2653 40.2533
711 1 0.9150 38.3659 49.7358
712 1 21.4986 31.8100 12.1941
713 1 29.9286 40.6727 32.6511
714 1 32.5272 8.8308 10.8881
715 1 40.5720 13.7576 38.5763
716 1 20.4909 1.7706 7.7686
717 1 24.7815 2.4710 20.1082
718 1 14.6237 15.9744 45.7029
719 1 28.1623 18.7758 18.8897
720 1 5.6008 34.0877 20.9071
721 1 11.3447 3.9163 17.0304
722 1 15.6057 32.2959 12.7137
723 1 32.7973 41.7436 35.2443
724 1 16.4400 47.4373 31.8986
725 1 5.8737 39.4543 12.2705
726 1 20.5749 14.7810 7.9617
727 1 49.1315 13.7126 29.1406
728 1 2.7380 18.1803 35.7744
729 1 4.0200 31.3582 20.5528
730 1 23.9913 15.0948 42.8733
731 1 26.7963 4.0049 19.3991
732 1 8.4478 7.1426 34.8388
733 1 8.4508 27.0068 15.0750
734 1 10.7013 40.4387 3.2592
735 1 7.5069 1.5829 25.1546
736 1 34.6988 1.9983 35.6565
737 1 27.8591 2.8175 0.3039
738 1 39.8205 4.0945 29.9576
739 1 0.6678 28.7122 31.9084
740 1 42.4117 3.8048 33.9380
741 1 26.1109 7.6924 0.1331
742 1 30.4429 16.9249 1.1169
743 1 23.4123 5.1076 19.7108
744 1 33.9579 3.5811 3.1043
745 1 28.4475 9.7853 20.4655
746 1 49.7764 11.5074 33.9764
747 1 22.9743 11.0350 21.0434
748 1 12.9164 7.9897 46.2734
749 1 49.9065 4.9578 5.3244
750 1 27.1249 45.1338 37.3972
751 1 5.7250 38.0949 43.3354
752 1 46.4144 16.0061 24.4652
753 1 41.1262 32.9687 13.8104
754 1 24.6597 10.9407 25.3152
755 1 21.6075 41.9438 22.1708
756 1 39.6753 36.0044 24.5472
757 1 31.1851 18.5312 44.2268
758 1 35.1319 21.2626 7.2356
759 1 20.2157 47.3046 0.7300
760 1 4.6345 26.0824 46.0016
761 1 16.7719 11.2593 39.3148
762 1 43.6820 32.1071 8.2027
763 1 25.5381 47.5376 43.1282
764 1 49.4711 9.7041 4.4965
765 1 15.4266 0.0492 6.0320
766 1 28.0191 18.2611 44.9377
767 1 3.5748 32.7557 1.4317
768 1 40.6240 10.9615 41.1227
769 1 35.4248 13.9434 46.0904
770 1 10.0232 5.7165 1.7848
771 1 3.6194 35.1898 14.3600
772 1 36.9397 36.0512 33.9236
773 1 47.0475 48.1843 46.8324
774 1 36.6665 18.1269 10.3218
775 1 11.9793 2.1996 6.0100
776 1 36.5185 32.6925 0.9378
777 1 9.7372 9.7608 43.1306
778 1 1.3668 48.5818 41.3363
779 1 22.3682 2.0643 17.4031
780 1 10.9633 40.3227 19.4131
781 1 40.5855 4.9047 43.4892
782 1 18.5171 38.8580 31.0496
783 1 10.1138 18.7715 25.3382
784 1 8.0060 44.8229 19.6356
785 1 32.5466 45.1339 5.1539
786 1 25.3969 0.0947 42.2646
787 1 32.0713 9.5260 37.5292
788 1 5.6809 13.4060 46.5768
789 1 20.4768 3.1088 31.7791
790 1 29.9317 28.6990 34.4478
791 1 37.2958 37.5123 22.0921
792 1 18.6887 27.9803 48.9641
793 1 47.1703 45.9589 14.1565
794 1 13.2999 28.8519 5.5157
795 1 39.3978 10.1970 32.0873
796 1 31.2626 40.9118 36.1517
797 1 15.1057 34.5071 9.4666
798 1 42.5151 18.7697 23.4519
799 1 32.5288 33.4017 10.1856
800 1 14.9257 19.0042 3.0741
801 1 43.6679 42.3272 25.7085
802 1 48.9193 23.1587 32.3097
803 1 47.3188 8.8614 2.6691
804 1 21.5858 4.1938 9.0903
805 1 40.8493 5.2058 2.4518
806 1 41.3074 17.9577 25.8833
807 1 35.5163 9.4239 1.0119
808 1 39.1290 31.1959 0.8667
809 1 16.9809 7.5894 34.8324
810 1 2.8240 42.7877 39.1557
811 1 10.6744 16.2898 19.4403
812 1 0.3257 19.8094 4.9240
813 1 42.2010 41.4429 15.7055
814 1 1.8751 30.3304 33.3272
815 1 8.9477 8.4531 36.2760
816 1 13.9667 40.4094 43.7002
817 1 7.6220 5.0951 1.1496
818 1 40.9065 13.5181 11.4339
819 1 45.1010 4.1209 31.5577
820 1 15.8718 26.7890 27.3534
821 1 47.3749 6.3824 37.9097
822 1 27.8699 39.8067 45.0145
823 1 0.9446 38.3269 27.5565
824 1 6.4130 26.3983 9.6987
825 1 10.7981 37.6969 33.3321
826 1 44.8143 20.9161 7.7155
827 1 34.1773 1.6252 25.8499
828 1 10.3667 5.3025 47.3038
829 1 16.6274 2.6989 16.6089
830 1 37.5600 4.4954 12.2068
831 1 9.5029 43.6071 49.6628
832 1 2.3324 34.7840 44.8726
833 1 21.0929 8.6529 3.4444
834 1 0.7997 25.9443 7.5486
835 1 29.1791 39.5442 0.2757
836 1 36.3281 2.7360 40.2961
837 1 34.2750 6.1901 20.5325
838 1 17.3777 4.0071 45.8868
839 1 49.6418 36.4968 18.4639
840 1 21.4099 22.2175 7.0715
841 1 44.1124 31.9949 44.1266
842 1 1.4142 26.3690 46.0623
843 1 49.3765 14.3477 26.8907
844 1 49.2724 15.3201 10.1607
845 1 28.5330 41.0592 25.3736
846 1 42.7174 14.0558 1.4714
847 1 2.3137 37.8242 41.8856
848 1 45.8871 18.8972 0.0998
849 1 20.4278 37.0802 6.3149
850 1 12.6003 3.6141 21.7734
851 1 21.7674 37.5119 1.5719
852 1 6.0120 48.0322 0.4856
853 1 19.5664 37.8282 17.4794
854 1 1.1717 25.9093 45.7879
855 1 13.9189 23.1057 10.2192
856 1 25.6623 13.6316 30.5177
857 1 19.9517 8.3141 1.6614
858 1 33.2381 4.4837 44.3283
859 1 29.0732 22.6369 0.7323
860 1 18.6020 15.2365 49.5148
861 1 41.9450 45.3546 40.6529
862 1 35.2389 32.0734 13.0721
863 1 40.4469 24.5681 31.3322
864 1 11.4306 3.9514 9.6753
865 1 44.9491 36.6878 44.6402
866 1 11.7731 21.7350 49.8491
867 1 32.1866 49.5148 26.9923
868 1 29.6918 10.3235 26.2330
869 1 1.6763 23.2500 28.1306
870 1 29.4694 48.4431 24.1298
871 1 30.2966 24.0224 6.2798
872 1 29.5255 28.7041 22.8523
873 1 37.5620 41.5661 42.8114
874 1 30.4911 25.1878 12.6978
875 1 44.0357 17.6474 0.0919
876 1 23.8210 14.4793 49.1571
877 1 9.6980 18.5898 43.1294
878 1 46.8373 37.3879 29.6261
879 1 7.0586 19.7259 40.3033
880 1 48.5845 13.4452 28.1217
881 1 34.3282 24.1981 21.4604
882 1 16.7160 7.1265 18.8835
883 1 32.0287 23.8821 1.9467
884 1 13.9929 2.5221 44.2170
885 1 35.3577 4.7803 23.8164
886 1 5.3591 14.8539 40.2102
887 1 23.6789 45.7658 6.0900
888 1 9.1834 23.3797 18.8440
889 1 49.9525 12.9923 28.9524
890 1 31.1298 5.0452 21.6189
891 1 3.6086 11.9858 21.4375
892 1 25.4245 34.3796 29.0914
893 1 0.3638 34.0724 6.8950
894 1 35.3545 19.7951 24.2457
895 1 37.5486 29.2328 38.3609
896 1 20.3811 14.0505 24.1167
897 1 8.7292 13.7496 37.2626
898 1 48.6122 10.2575 48.9120
899 1 31.3239 16.3528 37.0682
900 1 41.3447 16.9657 35.9977
901 1 49.0050 41.3077 34.5140
902 1 33.3020 49.3512 34.8285
903 1 30.4666 35.8996 46.9415
904 1 32.4037 42.8371 6.8276
905 1 45.6414 18.2191 4.0505
906 1 4.1899 17.9890 43.1582
907 1 36.2763 37.3923 38.5180
908 1 33.8766 27.4649 46.4063
909 1 32.6146 40.5834 18.8044
910 1 5.7659 15.1725 4.7331
911 1 44.4435 27.0045 12.8210
912 1 20.1731 30.9598 37.6429
913 1 44.3600 21.8925 15.0611
914 1 17.0875 25.9271 43.9553
915 1 20.6740 29.2597 31.9361
916 1 1.2323 49.5562 35.4873
917 1 22.6388 5.8075 12.7982
918 1 13.5098 10.1466 28.4551
919 1 21.8069 6.4680 6.4115
920 1 6.4953 23.3009 36.2680
921 1 22.1293 27.4627 47.5516
922 1 19.6058 19.6072 35.9830
923 1 29.0715 42.2680 37.1322
924 1 3.6960 11.3933 19.8651
925 1 45.2985 39.3317 36.6371
926 1 43.2283 1.3586 5.8437
927 1 28.9438 19.3890 19.3376
928 1 32.0897 35.1951 9.8953
929 1 34.6375 29.3403 45.5154
930 1 29.8282 42.4121 12.4781
931 1 18.2384 47.3406 29.0505
932 1 1.1006 47.1331 49.1710
933 1 33.9980 5.3931 9.2592
934 1 27.5228 12.7571 46.2003
935 1 15.2910 19.6490 24.6202
936 1 40.9303 17.8907 7.1546
937 1 18.1051 32.7223 0.1094
938 1 49.8927 14.5331 4.9453
939 1 24.1748 24.9075 37.7924
940 1 47.7866 0.6636 21.6921
941 1 25.6589 6.8474 41.0155
942 1 34.7922 8.9272 37.4690
943 1 22.1732 15.9011 46.5031
944 1 8.6506 12.6342 30.4527
945 1 3.2087 3.0969 29.6158
946 1 22.5048 27.8051 2.6017
947 1 27.9118 3.6193 34.8097
948 1 35.2704 7.5043 15.3440
949 1 3.7991 42.7246 44.3540
950 1 42.2047 30.5598 9.0633
951 1 25.7335 16.2469 47.4258
952 1 28.6391 2.5495 40.2524
953 1 3.1878 34.3114 8.3457
954 1 26.8171 9.1457 11.4422
955 1 11.5702 42.7100 14.0036
956 1 48.0527 11.0262 44.6976
957 1 29.3122 49.6993 40.5432
958 1 42.4447 32.6373 23.3735
959 1 20.1161 45.7123 33.9564
960 1 20.9069 10.8855 15.0519
961 1 7.4145 28.1626 26.8838
962 1 38.4963 32.4426 40.1270
963 1 19.1637 34.8221 40.4903
964 1 14.7801 42.2401 36.3360
965 1 42.6841 40.5556 2.5588
966 1 24.1919 25.9667 48.2673
967 1 42.2931 22.9627 44.4835
968 1 26.6709 40.6403 12.0084
969 1 42.6823 23.1514 38.2650
970 1 24.9474 39.7362 0.6487
971 1 47.8949 33.3115 31.1278
972 1 36.3694 47.2446 28.1549
973 1 21.5109 6.0214 29.6425
974 1 33.6467 1.9056 39.0841
975 1 29.8808 45.8971 9.5028
976 1 1.4013 31.6228 12.3699
977 1 17.5458 32.0580 3.0172
978 1 12.3964 35.3142 34.2246
979 1 40.8549 22.7655 17.9327
980 1 9.7350 39.5008 26.6934
981 1 4.4775 24.1189 27.1999
982 1 45.1045 5.0737 47.8511
983 1 18.6069 23.8821 27.7079
984 1 12.3999 33.5256 18.5384
985 1 39.9546 41.4918 15.1704