ITEM: TIMESTEP
0
ITEM: NUMBER OF ATOMS
1500
ITEM: BOX BOUNDS pp pp pp
0.0 50.0
0.0 50.0
0.0 50.0
ITEM: ATOMS id type x y z pdos_amplitude
1 2 43.7072 43.7755 29.2763
2 2 17.6311 33.9970 8.8925
3 2 19.3426 29.4785 32.0569
4 2 33.4492 14.1627 38.3270
5 2 18.2487 32.2434 18.8066
6 2 1.7079 9.0784 31.4558
7 2 7.7761 40.1626 46.7434
8 2 27.1751 6.7775 14.5469
9 2 19.6989 47.9083 49.4941
10 2 3.3219 33.1482 15.9143
11 2 4.2332 21.4480 47.8787
12 2 38.3467 0.8772 2.0037
13 2 30.0578 18.1051 25.9423
14 2 4.7929 0.6827 37.1772
15 2 45.2499 23.3504 34.2420
16 2 48.2505 45.3220 34.5655
17 2 47.0509 21.3778 46.2800
18 2 39.4002 4.8338 6.8355
19 2 10.8528 6.0985 30.3826
20 2 49.3187 8.9272 46.0299
21 2 38.2111 50.5860 21.3812
22 2 30.3705 25.3673 25.3228
23 2 20.4173 3.2360 4.8697
24 2 33.5252 15.1393 41.7493
25 2 27.7442 22.7767 5.4623
26 2 35.5781 25.8409 47.9559
27 2 14.9191 3.2879 25.2560
28 2 7.3075 47.9844 18.9450
29 2 39.2093 23.5642 11.7416
30 2 38.5285 3.2181 2.5676
31 2 46.6182 5.2893 6.7856
32 2 35.5878 17.3433 32.1344
33 2 8.1905 7.0101 35.1090
34 2 44.4926 44.9867 28.4247
35 2 35.3389 -0.7233 3.2621
36 2 23.0949 43.5955 38.6138
37 2 12.2213 30.7281 32.8047
38 2 31.4709 45.8969 6.8523
39 2 27.5243 24.4129 19.1850
40 2 12.7384 19.9178 17.8084
41 2 -0.2245 17.9128 3.3862
42 2 43.8137 2.8806 0.1556
43 2 7.8164 28.1743 44.3639
44 2 38.0005 14.5447 7.2936
45 2 33.7983 14.8957 0.0473
46 2 48.1405 18.3449 48.8475
47 2 16.7387 1.1249 27.6867
48 2 17.8000 36.5915 25.7887
49 2 7.8622 46.4304 11.7250
50 2 43.4407 45.5211 45.3869
51 2 2.8594 37.6634 38.3066
52 2 8.5802 35.5397 6.3837
53 2 10.9444 46.8258 47.1396
54 2 4.8203 47.3704 12.1299
55 2 46.5940 45.5497 13.5337
56 2 5.0953 16.4004 5.9718
57 2 46.3818 27.9476 44.6615
58 2 15.8603 17.8149 23.8057
59 2 48.0312 1.8860 15.5371
60 2 18.8038 20.0414 21.7283
61 2 5.7058 12.7939 32.4379
62 2 35.7388 43.6285 49.1441
63 2 25.3099 24.7127 23.7182
64 2 42.3426 43.2148 16.2796
65 2 6.1236 46.7967 24.6239
66 2 7.9629 45.9862 19.4674
67 2 48.4462 37.4619 5.6928
68 2 21.2711 43.4608 32.4916
69 2 26.6130 9.8553 21.9857
70 2 34.4717 27.0604 27.7169
71 2 46.9216 20.5767 4.6857
72 2 3.7674 36.0210 35.3207
73 2 31.0736 7.0549 1.6163
74 2 16.3131 17.3438 37.5865
75 2 19.9874 34.9799 12.1316
76 2 11.1680 9.9854 24.3912
77 2 48.7465 20.6620 46.9313
78 2 7.7358 7.2024 48.9343
79 2 32.5696 39.3229 1.5469
80 2 9.6362 10.4177 2.3876
81 2 11.3861 34.6860 30.1148
82 2 48.6588 39.7498 45.2821
83 2 48.7236 17.3253 28.6750
84 2 35.1031 17.8366 6.1709
85 2 31.4464 4.5622 6.9837
86 2 48.8798 16.7729 31.0642
87 2 44.2323 32.8140 33.2061
88 2 43.9218 2.4628 30.7089
89 2 26.5770 23.8691 36.9531
90 2 17.3322 43.9638 25.4808
91 2 32.3609 41.2783 31.4340
92 2 40.4349 28.9769 1.5202
93 2 8.9809 3.6412 30.1221
94 2 38.7087 49.8871 26.9089
95 2 39.6961 22.1618 4.5016
96 2 20.1522 15.4597 5.0237
97 2 19.7076 25.0700 18.8738
98 2 7.4883 19.8312 14.5032
99 2 10.8355 31.2922 38.3545
100 2 3.7399 22.1792 8.3857
101 2 32.5858 38.4266 43.7741
102 2 36.0904 27.9400 38.9093
103 2 24.1594 0.5452 9.1368
104 2 46.0893 15.2285 37.4350
105 2 30.9053 6.2617 43.3450
106 2 45.1678 16.1405 30.2717
107 2 33.6603 2.5058 5.9990
108 2 20.5154 2.9124 35.6301
109 2 8.8740 4.2574 10.3779
110 2 21.0298 27.5445 19.0048
111 2 12.9062 39.8382 45.7935
112 2 32.8018 46.9340 4.4542
113 2 46.8936 8.2197 8.8698
114 2 26.5906 18.2651 39.9249
115 2 39.5104 35.4006 34.0777
116 2 36.2194 44.0557 0.4971
117 2 25.2551 50.7138 32.2733
118 2 39.5746 45.4970 21.7389
119 2 23.8495 1.3918 16.9352
120 2 19.0574 14.5471 25.8848
121 2 2.3630 37.8327 37.6586
122 2 29.0035 11.6072 5.6592
123 2 43.4808 37.7871 27.4989
124 2 19.6497 41.2368 30.3152
125 2 27.4340 28.4006 4.9603
126 2 37.2471 47.7247 4.0217
127 2 7.0300 44.4887 15.6419
128 2 48.2081 1.6907 11.8337
129 2 6.8775 4.1674 29.1913
130 2 6.2871 50.8807 10.6825
131 2 32.2171 20.4758 28.2368
132 2 19.9070 34.9792 19.9358
133 2 11.1973 43.7529 12.5265
134 2 49.7277 20.9953 24.0083
135 2 27.0880 35.5933 16.6034
136 2 29.8534 31.8794 19.3245
137 2 5.8746 19.1518 49.0680
138 2 34.7297 18.1126 6.0803
139 2 29.0284 32.9828 32.0415
140 2 14.6498 18.7262 2.2138
141 2 1.2685 47.1188 49.8068
142 2 5.5728 14.8612 49.2967
143 2 28.1831 40.4646 35.6829
144 2 40.7782 10.4517 26.9750
145 2 16.2898 36.6627 32.0951
146 2 37.5554 40.4252 40.8829
147 2 13.8962 47.8267 29.4640
148 2 24.5350 3.6998 47.7652
149 2 2.5517 38.9313 20.5810
150 2 33.6987 24.0587 25.2334
151 2 47.7315 18.6808 18.4850
152 2 17.6245 26.1359 43.7785
153 2 38.5028 37.7011 10.2871
154 2 15.2348 33.7074 13.6813
155 2 48.9261 24.0768 32.3866
156 2 27.9270 34.1046 12.1958
157 2 23.7071 30.0445 29.1192
158 2 30.2315 31.8299 21.6590
159 2 19.8645 21.8153 46.8090
160 2 19.4801 41.6356 44.6258
161 2 29.7292 16.6106 46.3339
162 2 48.6511 41.9574 17.0256
163 2 38.4795 45.4302 34.4050
164 2 43.6910 13.9125 48.9170
165 2 40.4887 23.3274 30.6219
166 2 4.9706 3.2817 16.7213
167 2 6.6893 34.8946 1.3651
168 2 19.2032 45.7217 33.3474
169 2 38.7752 43.1938 41.5799
170 2 29.6876 18.6676 5.2267
171 2 44.9308 29.3007 15.9007
172 2 15.6063 9.8664 8.9441
173 2 23.8758 2.3159 40.5898
174 2 6.6754 23.5967 35.7350
175 2 9.9023 36.7596 40.0263
176 2 48.9474 1.6396 35.7205
177 2 24.4702 49.5567 24.0586
178 2 43.1993 32.2276 15.6103
179 2 17.2072 30.7340 4.1049
180 2 38.9641 10.8956 39.5329
181 2 17.4912 6.5756 0.1314
182 2 42.6985 0.7878 31.7955
183 2 0.0511 11.9360 2.2285
184 2 35.1864 9.4154 40.6245
185 2 22.5533 5.3448 44.6365
186 2 43.3422 32.2350 28.4526
187 2 16.6216 43.3071 27.5504
188 2 38.5881 42.0335 46.6315
189 2 38.1994 20.9132 37.0002
190 2 20.6800 41.2608 34.8666
191 2 10.5088 26.4967 23.7419
192 2 41.2175 45.3213 34.1096
193 2 34.4144 8.2265 31.8916
194 2 25.5499 2.3881 17.2436
195 2 23.0353 13.5205 26.7696
196 2 6.6083 45.2838 8.7220
197 2 38.9922 9.2207 27.7785
198 2 46.7214 1.5484 2.6084
199 2 10.3025 -0.1485 35.4001
200 2 15.8274 19.3782 22.5704
201 2 29.8319 40.1824 49.5539
202 2 25.1607 32.0626 2.8087
203 2 49.5854 39.0289 13.9200
204 2 29.7079 36.0153 26.8236
205 2 19.0268 1.8600 24.8209
206 2 26.2496 16.1185 40.7995
207 2 37.6416 6.4859 32.1115
208 2 1.6754 10.0297 3.4655
209 2 5.6636 24.8469 2.5084
210 2 35.5823 11.1767 44.9192
211 2 36.7214 3.4732 45.9383
212 2 45.4234 15.5567 39.5142
213 2 37.3473 15.7304 2.2018
214 2 42.8429 6.7866 3.4835
215 2 2.6826 38.8382 27.8329
216 2 24.1595 27.8451 7.7494
217 2 6.8354 18.5712 32.3554
218 2 4.9208 0.2629 28.5658
219 2 38.2520 16.2934 22.0054
220 2 11.0012 31.5389 27.9797
221 2 24.3984 50.3688 9.9537
222 2 28.6873 21.5028 34.5749
223 2 3.6657 25.4873 28.4432
224 2 37.7695 20.2164 28.7929
225 2 29.4653 47.4513 31.8965
226 2 41.5441 17.8180 41.5373
227 2 13.7454 22.5854 30.3163
228 2 26.5571 19.8836 42.7080
229 2 33.1334 34.4852 10.6678
230 2 5.0196 44.1947 38.7010
231 2 32.6777 47.8682 12.9779
232 2 25.6666 16.8369 0.1808
233 2 49.1638 48.4663 0.9839
234 2 38.2396 36.2241 24.3306
235 2 30.4486 34.4571 41.0497
236 2 29.1992 44.9359 7.2896
237 2 25.9309 16.0592 16.2196
238 2 37.6181 32.5418 45.4086
239 2 33.0035 23.2016 28.0310
240 2 29.1372 29.3304 22.5387
241 2 4.1989 13.5698 26.4682
242 2 1.6622 29.0496 36.1695
243 2 20.4877 6.6988 46.1592
244 2 3.3747 45.0768 18.3165
245 2 3.0320 4.4700 32.3886
246 2 36.8689 25.9249 48.5161
247 2 18.0741 38.3034 35.9750
248 2 14.4337 15.8102 11.5656
249 2 40.6099 7.8698 18.0471
250 2 8.6910 46.3780 7.5914
251 2 29.7647 31.1829 41.5678
252 2 48.7772 7.0708 29.8004
253 2 8.8891 27.2959 4.5628
254 2 46.0399 2.7034 12.9521
255 2 1.7627 15.5645 5.0447
256 2 4.5343 37.5263 24.9225
257 2 34.6782 18.0712 5.8271
258 2 24.1448 6.6365 32.6078
259 2 10.6799 17.5118 11.8878
260 2 19.6514 45.2523 8.4641
261 2 3.2884 30.0147 37.4732
262 2 15.7095 19.9918 41.5884
263 2 9.9041 17.8004 10.3390
264 2 32.4879 10.5205 17.0453
265 2 19.0194 42.0759 46.8670
266 2 33.7591 46.2045 31.2930
267 2 34.1534 17.7909 47.3062
268 2 38.4829 28.4916 47.0524
269 2 6.9297 25.3867 28.5588
270 2 18.7834 23.4922 41.2038
271 2 24.9279 7.6465 8.7033
272 2 40.7819 8.1604 19.1775
273 2 1.9215 3.6186 12.4687
274 2 21.0954 26.7810 47.6282
275 2 36.3707 19.8107 13.9110
276 2 35.1481 24.0418 49.1422
277 2 45.7589 30.2987 3.2599
278 2 8.7504 45.7698 36.8347
279 2 29.2152 49.5188 9.9265
280 2 12.5192 10.4262 34.4966
281 2 11.7127 41.3916 39.9362
282 2 5.0313 26.7864 43.5802
283 2 11.7121 23.0465 20.9090
284 2 41.6496 49.4629 16.0441
285 2 35.1629 23.3299 18.6287
286 2 2.3739 2.4718 49.2633
287 2 20.2185 2.7820 38.5097
288 2 41.6895 48.0788 20.0567
289 2 25.1865 47.5037 4.7488
290 2 45.6861 15.6045 5.6642
291 2 42.1318 32.5222 14.9890
292 2 2.3017 46.1647 5.2913
293 2 15.9200 14.4803 28.9321
294 2 5.2434 26.0494 11.6974
295 2 22.7298 23.5037 16.7905
296 2 45.7051 23.9575 30.6257
297 2 47.9165 32.7402 13.0181
298 2 26.5663 21.9641 45.8974
299 2 41.5383 18.1850 12.6271
300 2 49.0420 34.0530 21.7315
301 2 20.9875 49.1753 1.5424
302 2 37.7555 33.7156 0.5952
303 2 10.5390 24.6939 3.5739
304 2 35.1428 11.9980 44.3931
305 2 28.7875 2.5309 3.4298
306 2 30.6678 50.6426 31.0837
307 2 15.6828 40.2296 22.2659
308 2 21.6859 30.5655 27.6301
309 2 6.1410 12.9958 49.1342
310 2 16.0408 43.1754 10.3563
311 2 47.3944 17.5408 21.1527
312 2 32.1314 47.0162 22.3462
313 2 18.2008 24.6778 9.2071
314 2 33.6033 27.4961 24.5095
315 2 18.0870 18.1700 21.3402
316 2 11.4465 47.1801 25.4598
317 2 30.3097 34.7726 12.7596
318 2 23.5851 35.3533 28.6095
319 2 44.8377 3.8963 7.6806
320 2 5.8898 49.1113 10.0861
321 2 15.2837 15.4643 42.1920
322 2 2.4112 8.8743 4.4637
323 2 32.7548 49.1853 3.6721
324 2 32.7563 34.7759 36.1421
325 2 7.0169 48.0270 23.2481
326 2 35.5525 6.7222 5.2241
327 2 6.4034 14.2392 7.4869
328 2 20.9168 34.0508 2.2008
329 2 31.3578 18.1198 10.7914
330 2 23.1071 6.6630 14.5360
331 2 48.3552 21.9298 37.7737
332 2 46.6819 26.6784 39.9202
333 2 3.5353 0.2444 10.0084
334 2 45.6494 39.2421 13.8600
335 2 17.9726 41.2267 39.8834
336 2 9.8599 37.3681 40.4280
337 2 31.2839 19.4136 4.2871
338 2 42.4792 25.6308 24.4238
339 2 40.3361 5.4791 13.3190
340 2 3.3077 49.0431 23.7687
341 2 8.4274 27.6569 4.2677
342 2 19.7981 47.9746 39.1213
343 2 23.6736 30.9009 12.9711
344 2 31.9684 1.5458 39.6810
345 2 20.5130 5.7543 26.1363
346 2 46.3737 6.0725 44.0834
347 2 38.7724 47.4779 15.7336
348 2 26.0751 42.0673 35.3280
349 2 12.5742 33.5410 8.3539
350 2 43.1735 31.0039 24.6588
351 2 14.6806 29.3964 43.4592
352 2 42.5462 5.0175 27.5772
353 2 11.7895 47.8557 43.9067
354 2 42.3321 24.9438 42.2475
355 2 9.4288 40.4350 7.6880
356 2 5.1887 6.7454 28.3652
357 2 47.1574 42.8433 2.5087
358 2 49.0309 19.1851 21.5400
359 2 36.0442 31.7517 28.2819
360 2 33.6630 31.0395 11.7027
361 2 5.2185 14.6182 22.7354
362 2 22.1119 48.8255 3.7967
363 2 12.6729 35.3460 13.4966
364 2 48.2928 24.7777 24.0992
365 2 27.2962 4.5019 21.8319
366 2 22.1743 38.1328 28.1230
367 2 0.7874 9.9894 28.4821
368 2 35.3730 4.5529 43.3706
369 2 49.0830 23.8444 24.0927
370 2 19.5511 27.0951 3.0747
371 2 3.2442 20.3482 47.1611
372 2 0.3604 16.5275 28.3152
373 2 4.7664 47.6210 24.3490
374 2 39.7621 38.9751 13.9110
375 2 34.5956 26.8516 2.0940
376 2 31.7476 29.4816 39.2081
377 2 9.5389 0.4937 29.4091
378 2 4.4309 24.0873 19.4322
379 2 27.9628 13.4581 46.0153
380 2 1.5400 34.6509 23.5820
381 2 21.6415 20.6580 30.4331
382 2 39.3365 2.5100 48.2024
383 2 33.1391 28.2833 12.1257
384 2 27.2591 2.7427 12.4419
385 2 37.7753 49.7512 27.0676
386 2 0.7787 32.3532 34.4977
387 2 2.6906 15.2480 7.6034
388 2 8.4483 33.9673 26.4425
389 2 7.7795 35.4001 40.0829
390 2 3.4830 49.1197 4.8954
391 2 9.7077 12.6928 44.2743
392 2 40.4067 39.2624 35.4446
393 2 34.1819 31.0449 8.2303
394 2 37.9298 39.1590 44.4642
395 2 45.1524 29.6492 6.6052
396 2 9.0065 5.0708 24.0605
397 2 3.3955 26.2946 21.5685
398 2 48.0634 26.2666 41.0025
399 2 2.9823 32.0441 8.2859
400 2 42.6523 44.2397 39.7627
401 2 32.6986 49.5919 33.9211
402 2 43.7687 43.9044 16.8970
403 2 8.7950 46.3404 45.1144
404 2 43.2935 13.5494 33.3830
405 2 44.3836 42.2273 28.2313
406 2 8.3665 40.2083 47.4435
407 2 48.7363 5.3121 24.3842
408 2 33.9641 48.0993 23.4815
409 2 12.8620 8.6229 5.2337
410 2 42.6664 6.4819 29.6867
411 2 33.6391 29.8151 35.4742
412 2 9.2898 39.0880 8.3239
413 2 8.3455 3.6516 20.8149
414 2 44.5082 27.2794 15.0563
415 2 25.5690 26.9151 12.2888
416 2 28.4849 41.3711 46.5886
417 2 25.2703 19.7086 29.4848
418 2 14.7030 47.1882 45.6448
419 2 34.3886 8.1389 35.8064
420 2 9.1957 8.6505 1.7646
421 2 16.1731 47.3191 0.6005
422 2 2.6482 21.3085 29.6224
423 2 48.6673 34.2190 35.5212
424 2 21.7941 24.0612 19.4968
425 2 39.4372 41.1604 32.0290
426 2 19.1839 38.8414 39.9483
427 2 40.1503 21.1321 5.2195
428 2 30.3201 44.3257 19.1601
429 2 33.2498 7.8598 6.7286
430 2 28.8294 11.6221 21.4182
431 2 7.7571 34.6695 36.5883
432 2 5.5751 15.8163 33.4165
433 2 35.6643 3.7898 29.1792
434 2 28.3213 7.5470 28.1329
435 2 32.1771 24.0711 16.7337
436 2 46.0381 2.5327 13.7836
437 2 44.4221 22.1582 6.0911
438 2 27.4335 17.6412 26.5942
439 2 46.3484 47.3373 29.9896
440 2 25.1157 40.7457 22.7634
441 2 29.3145 25.1350 1.6756
442 2 27.9743 26.2206 49.4042
443 2 24.6823 13.5152 37.2495
444 2 6.7208 27.7880 30.0937
445 2 12.0673 27.1695 20.9267
446 2 2.3252 8.6984 41.6546
447 2 9.0615 5.3446 34.9698
448 2 42.2083 17.3757 4.3933
449 2 26.5322 12.7290 42.0569
450 2 45.6496 21.8781 7.5499
451 2 23.6854 5.1110 29.9410
452 2 26.9380 18.6307 12.9790
453 2 41.4353 23.6975 29.9747
454 2 1.4988 23.6399 16.3346
455 2 6.4732 16.7606 32.9750
456 2 11.6038 0.6182 4.8381
457 2 22.8079 12.0988 14.0920
458 2 6.2361 37.4945 34.0386
459 2 24.3376 40.3648 33.5362
460 2 10.6128 49.9457 35.4734
461 2 44.3926 19.3422 42.5570
462 2 39.1573 2.3330 49.4847
463 2 32.4446 34.9150 42.1019
464 2 10.4496 20.4865 30.1318
465 2 45.2191 10.3160 17.1337
466 2 43.5209 32.9807 48.7132
467 2 35.0689 0.6098 11.8582
468 2 27.2011 33.7512 1.0629
469 2 8.6690 19.7944 38.7432
470 2 12.6222 32.4872 3.5181
471 2 23.9200 25.1643 41.3642
472 2 40.1383 21.1153 38.9952
473 2 11.6894 25.7132 5.9826
474 2 31.4968 35.3671 4.9908
475 2 23.3764 44.0049 19.5019
476 2 28.6452 43.8898 34.6231
477 2 45.9708 43.8928 35.7065
478 2 9.1966 18.0983 10.0938
479 2 7.6870 15.1791 19.4996
480 2 16.2087 30.5949 2.2721
481 2 32.1189 12.3006 48.4657
482 2 5.6406 38.4612 49.9085
483 2 12.7144 11.6007 40.6779
484 2 35.9754 17.5948 29.6693
485 2 23.0409 24.8972 12.5130
486 2 38.6018 6.0935 14.9117
487 2 5.3175 40.2605 15.0717
488 2 4.2334 2.4471 14.6288
489 2 27.9474 20.8415 38.0846
490 2 3.6577 44.8476 8.5572
491 2 14.4747 15.8428 49.7773
492 2 35.5561 24.8214 23.8067
493 2 48.5766 6.1369 42.4880
494 2 18.6874 25.5203 25.4944
495 2 37.0359 7.2350 37.2081
496 2 10.6436 7.8427 27.4647
497 2 35.6927 13.0668 2.7314
498 2 34.5367 7.4753 28.4224
499 2 30.6550 39.5790 48.3693
500 2 30.2963 43.4307 21.4545
501 2 11.4773 5.4385 41.6110
502 2 6.8786 4.3110 21.9992
503 2 26.1808 11.0340 35.4965
504 2 20.7093 3.2469 28.0905
505 2 8.1885 27.9576 17.4252
506 2 31.6450 1.6673 10.6504
507 2 12.5469 32.3486 4.1637
508 2 42.5604 33.8003 36.4942
509 2 44.1561 31.8015 0.9967
510 2 10.3313 12.5088 33.7797
511 2 49.1993 29.6029 12.1090
512 2 22.8254 35.6148 15.5944
513 2 25.1253 27.1194 31.7475
514 2 33.2077 10.0122 26.5750
515 2 5.4058 43.2761 25.3321
516 2 13.0758 29.2571 26.3082
517 2 28.8284 28.9135 28.7644
518 2 30.4893 37.9959 15.5397
519 2 47.5502 17.5804 15.9763
520 2 0.0414 49.6664 40.7282
521 2 34.6482 39.9215 3.1247
522 2 22.7524 5.7827 23.0795
523 2 26.2701 8.4266 15.4162
524 2 44.3463 41.7459 36.5135
525 2 42.9035 0.5518 38.8982
526 2 8.7274 46.4852 10.8923
527 2 32.7811 37.3934 22.9197
528 2 41.4693 30.8113 19.3674
529 2 22.8539 44.2453 7.2260
530 2 27.9485 21.4800 37.5190
531 2 8.7934 1.4553 16.7647
532 2 47.0503 16.8648 10.7320
533 2 39.7032 40.5081 31.0822
534 2 21.4325 46.6763 29.0110
535 2 10.2536 37.0172 42.5970
536 2 33.3359 32.2637 48.5728
537 2 41.5131 13.5612 6.2443
538 2 15.6259 38.1943 20.4928
539 2 18.3461 7.3582 38.6690
540 2 43.0940 21.9399 18.0970
541 2 28.6983 31.5216 32.1640
542 2 34.5388 6.7845 28.3732
543 2 42.7130 34.1540 20.1460
544 2 29.7570 31.8877 12.7244
545 2 24.1204 13.2493 1.6791
546 2 45.7169 40.6415 45.9728
547 2 13.8214 35.0895 32.1821
548 2 27.0939 15.2739 16.9389
549 2 4.9442 8.4415 44.5470
550 2 14.7456 2.7977 30.7564
551 2 40.4620 19.0302 20.5587
552 2 3.3917 13.3946 2.5277
553 2 19.3932 7.8160 36.3722
554 2 17.9351 13.7993 43.6010
555 2 25.1019 49.2230 8.4007
556 2 44.5394 35.4844 8.9391
557 2 31.6007 11.0935 13.3465
558 2 38.9426 47.4525 0.8413
559 2 36.9971 20.1587 4.4080
560 2 2.5076 20.4032 43.8619
561 2 7.3625 41.5212 16.0290
562 2 19.0573 22.6290 48.7594
563 2 11.4698 31.4698 28.1346
564 2 21.7378 24.2608 11.9703
565 2 47.4523 17.8792 40.5828
566 2 6.8716 43.4288 28.8523
567 2 1.3919 33.8993 47.4424
568 2 36.6744 34.3325 28.4855
569 2 47.5757 33.3756 7.0045
570 2 37.3353 12.1025 14.8551
571 2 24.1790 19.4864 11.0746
572 2 38.6318 43.0417 28.6346
573 2 43.5755 42.6786 3.7168
574 2 43.7920 11.3736 22.4618
575 2 43.8996 5.7665 37.4169
576 2 29.8119 34.6985 14.1365
577 2 47.4384 39.6568 5.5450
578 2 41.0868 42.5296 45.7604
579 2 38.7262 9.8788 17.3236
580 2 19.3964 26.9826 10.9663
581 2 7.1900 22.6768 11.3683
582 2 39.3022 40.8317 48.3915
583 2 9.9636 33.8656 35.0863
584 2 13.4579 36.1681 34.8756
585 2 46.8694 21.7781 3.4379
586 2 33.4520 2.4617 43.2048
587 2 41.8752 24.5851 24.1519
588 2 9.9358 4.6945 14.9951
589 2 8.5047 16.7454 38.7891
590 2 29.5480 37.3818 13.7700
591 2 11.4751 31.3801 21.2134
592 2 25.1232 42.6831 48.8408
593 2 5.9122 1.3624 10.0838
594 2 27.3589 42.5967 46.0108
595 2 47.9773 30.7457 10.1361
596 2 5.7846 7.1407 2.3178
597 2 32.4000 28.0148 48.3427
598 2 12.8749 8.6010 47.6157
599 2 20.4628 9.2939 21.5349
600 2 8.1289 34.3182 11.2844
601 2 9.7824 11.3200 21.2684
602 2 1.7627 29.7484 26.6745
603 2 3.8960 32.6166 43.4227
604 2 2.6185 12.1449 13.4069
605 2 11.6794 40.2026 1.8808
606 2 22.6537 37.1173 38.6722
607 2 6.5539 29.3049 9.4092
608 2 27.7585 24.8372 21.3466
609 2 20.5335 20.1948 23.6367
610 2 4.8569 44.0734 49.1930
611 2 20.3791 34.8548 14.1312
612 2 19.0715 3.8792 28.8447
613 2 24.3357 21.4577 37.3266
614 2 43.6662 35.6070 27.9293
615 2 7.2896 31.2888 44.9021
616 2 42.1172 26.9386 27.3659
617 2 11.0564 12.6347 35.0898
618 2 36.1050 37.1038 9.7477
619 2 22.3020 9.7455 43.2012
620 2 19.4204 26.4886 46.3703
621 2 41.7037 26.6560 39.4888
622 2 9.4098 25.4211 24.7237
623 2 31.3902 15.5148 11.0516
624 2 23.1327 22.0907 11.1211
625 2 38.8854 41.7997 48.1235
626 2 7.1135 12.0478 6.0721
627 2 6.3720 22.5794 49.1072
628 2 36.6247 41.6868 35.3492
629 2 22.5791 17.5565 29.6003
630 2 28.5143 26.7831 48.1270
631 2 48.0928 24.1903 46.0857
632 2 3.8771 26.1534 0.2752
633 2 33.4561 14.8350 14.1578
634 2 40.5926 26.2247 30.5654
635 2 3.5770 30.1760 2.9220
636 2 15.0140 14.2500 28.6226
637 2 38.9502 21.8405 5.1090
638 2 32.5607 22.1647 22.1956
639 2 7.6547 46.3724 30.8481
640 2 14.2581 28.2773 34.3368
641 2 7.0834 3.8849 13.3533
642 2 16.8110 40.0358 30.6564
643 2 43.7736 15.8277 37.6940
644 2 29.7598 6.0602 2.6969
645 2 26.2531 6.5826 12.3335
646 2 43.2181 14.1849 19.1901
647 2 48.3688 6.5645 27.3120
648 2 27.6698 42.7183 13.4410
649 2 34.6208 44.8112 15.3188
650 2 15.7668 42.3345 48.1801
651 2 16.4088 24.6176 11.7389
652 2 45.6733 2.9327 30.6683
653 2 36.4007 44.9470 48.5546
654 2 3.2569 8.8402 17.0265
655 2 0.6494 11.4711 21.5360
656 2 23.8145 29.4528 34.8727
657 2 31.8622 34.6370 27.9382
658 2 18.6799 19.8259 41.8226
659 2 24.9865 20.5766 26.5447
660 2 7.3679 8.4524 29.9417
661 2 3.3553 29.4705 30.3067
662 2 2.8413 45.8184 33.2893
663 2 0.7073 34.8957 25.7061
664 2 45.8083 39.1761 10.5753
665 2 -0.7030 31.0888 7.0555
666 2 23.7920 19.1275 6.9020
667 2 21.4115 19.5450 35.5916
668 2 35.6680 5.8188 23.5317
669 2 13.1419 28.0453 8.4137
670 2 15.2043 10.2735 29.1260
671 2 39.4808 26.5303 44.1945
672 2 21.1119 34.3661 32.2321
673 2 30.6478 2.1052 34.1961
674 2 33.0758 1.7900 21.4208
675 2 34.7156 11.0786 7.7072
676 2 4.1909 9.4825 47.8688
677 2 38.5645 46.2580 45.5449
678 2 30.9576 12.1981 0.4138
679 2 35.1653 4.3161 39.9190
680 2 1.6504 15.7116 37.1788
681 2 35.4552 6.9359 13.5574
682 2 13.5627 13.6401 2.5149
683 2 5.7084 28.4437 26.6373
684 2 44.4807 5.0523 2.2167
685 2 14.5507 21.5393 17.0147
686 2 40.0566 45.4367 44.8775
687 2 28.7543 -0.8436 46.6255
688 2 48.9176 7.2722 4.7194
689 2 6.6600 1.6772 39.8007
690 2 22.2446 30.3890 27.3462
691 2 12.1574 38.5983 15.9085
692 2 -0.3596 19.3955 0.9892
693 2 29.0446 20.9079 46.6510
694 2 24.6855 43.1539 11.5627
695 2 41.8640 38.8395 3.7586
696 2 8.7795 2.5400 7.3770
697 2 16.8327 36.6581 33.0332
698 2 -0.5138 49.5071 39.1320
699 2 16.9624 5.9785 37.8427
700 2 43.7294 11.2770 15.6225
701 2 30.5951 25.2223 24.6397
702 2 19.9451 2.4508 5.0976
703 2 23.3418 15.1849 30.0932
704 2 8.1006 12.9018 35.9298
705 2 25.6607 4.3569 4.6325
706 2 42.7629 4.6318 17.0692
707 2 17.6384 44.2622 48.1350
708 2 5.3394 20.0228 16.8539
709 2 38.1596 16.8438 46.1840
710 2 31.1345 21.3103 41.1215
711 2 1.8555 41.7044 6.8466
712 2 40.9237 10.4559 48.0120
713 2 18.7366 48.8035 25.4447
714 2 8.1997 40.5423 19.6266
715 2 49.8425 20.6969 42.6178
716 2 10.1560 15.2606 3.5933
717 2 35.4345 24.3895 42.0337
718 2 12.4072 46.9713 28.2652
719 2 38.7555 40.0516 0.1995
720 2 0.0763 10.7461 5.7341
721 2 46.2366 20.8450 31.8583
722 2 6.5340 8.8991 34.1201
723 2 0.3915 7.0911 3.5794
724 2 41.5108 15.1368 15.0875
725 2 6.9802 20.3910 43.3774
726 2 37.7268 15.4737 4.3621
727 2 -0.5655 24.0357 7.6585
728 2 40.5786 9.8874 6.8688
729 2 34.1554 28.8092 41.3474
730 2 27.2526 9.3482 47.5582
731 2 28.2133 36.6979 28.6072
732 2 0.9197 16.8477 27.3168
733 2 1.2593 33.6286 36.9434
734 2 30.1823 15.7430 16.3435
735 2 24.2029 7.0514 41.0526
736 2 39.7945 3.2966 9.7790
737 2 23.3275 18.6730 6.5684
738 2 46.2858 15.3633 19.5925
739 2 0.0401 5.2011 26.4657
740 2 16.0388 13.7164 30.1486
741 2 41.4807 44.9759 0.6149
742 2 38.3921 41.2255 43.4230
743 2 3.6691 32.2082 16.0486
744 2 2.0923 34.5505 0.5977
745 2 12.5731 45.1926 40.3380
746 2 16.0722 8.5443 43.7440
747 2 9.8909 17.4504 6.9073
748 2 2.1612 20.5724 42.9562
749 2 17.8559 24.3130 11.5026
750 2 19.3326 28.5323 49.0304
751 2 41.8875 10.2556 26.7365
752 2 29.6942 30.6115 36.4427
753 2 22.0243 48.7939 10.3545
754 2 47.2573 15.7552 48.6370
755 2 39.0487 6.7861 24.7406
756 2 40.1120 8.5835 28.2496
757 2 40.7406 29.9369 32.0493
758 2 12.7574 25.5179 38.1542
759 2 22.5144 41.5388 26.4301
760 2 13.3199 35.4098 39.8864
761 2 41.6584 25.9684 33.1359
762 2 23.5624 25.4235 10.0008
763 2 20.3303 7.6053 15.8046
764 2 20.6854 15.4437 29.4834
765 2 26.9205 16.8378 49.3758
766 2 37.1813 5.0159 28.1590
767 2 32.4087 16.2337 14.0705
768 2 37.3910 38.8862 49.8250
769 2 44.6166 23.0905 46.2561
770 2 8.9641 14.3250 22.1071
771 2 8.4739 46.5288 3.2073
772 2 2.3603 -0.6268 48.4582
773 2 8.8566 46.4787 15.6484
774 2 45.1050 43.3160 43.9228
775 2 48.7585 22.1682 46.9709
776 2 43.9397 43.1073 15.2467
777 2 10.1701 29.8588 40.5554
778 2 37.5021 45.3866 9.9894
779 2 6.6222 37.8277 20.2959
780 2 50.7275 33.8829 11.6250
781 2 10.3191 1.9229 45.4046
782 2 22.3448 5.0794 14.4268
783 2 1.3820 47.5845 49.6045
784 2 22.9380 48.7135 12.8372
785 2 2.1714 21.7257 31.4745
786 2 41.7714 18.3647 14.5152
787 2 20.1419 33.3250 6.8508
788 2 19.0157 5.7851 12.3489
789 2 2.2385 4.7044 47.7964
790 2 1.7408 38.7018 37.3575
791 2 1.7544 47.9180 31.0709
792 2 36.5046 35.6551 45.3512
793 2 49.2911 31.9116 3.6973
794 2 39.4860 15.9841 31.6355
795 2 27.4654 25.2234 25.5138
796 2 20.3263 9.3675 33.8633
797 2 33.4148 36.6023 43.7009
798 2 30.5108 13.5225 30.8471
799 2 7.3710 29.8161 12.9754
800 2 23.4257 18.0087 43.0309
801 2 1.0221 46.2970 41.6936
802 2 37.0725 19.3680 38.0711
803 2 37.8601 23.4141 29.8543
804 2 15.5892 34.3048 17.2038
805 2 9.0730 34.5617 36.8999
806 2 25.5771 30.1029 44.2993
807 2 26.4016 29.6500 9.5552
808 2 15.4492 46.6891 12.1780
809 2 5.1841 39.0088 2.4038
810 2 49.4323 15.1834 14.0151
811 2 33.0660 17.3389 16.0633
812 2 38.4302 29.0386 47.9059
813 2 25.4889 8.9062 19.3205
814 2 12.4433 1.7879 4.9801
815 2 33.0666 3.4356 6.0686
816 2 29.4787 42.9073 49.1903
817 2 46.2794 47.1852 33.6407
818 2 49.0079 42.6419 26.1228
819 2 7.9445 27.4119 25.1531
820 2 17.6004 20.1035 11.8899
821 2 21.6599 8.2421 3.6473
822 2 47.2135 40.4798 46.2596
823 2 20.9867 13.6960 42.6751
824 2 31.0533 13.8702 24.6201
825 2 15.4523 9.6240 37.9133
826 2 1.7173 8.4600 28.8156
827 2 3.3296 0.1765 25.2466
828 2 50.7153 21.6960 45.1387
829 2 2.5402 7.2620 40.7089
830 2 46.1485 13.8636 5.6384
831 2 36.2179 31.3658 31.8772
832 2 8.5075 9.8680 12.4679
833 2 42.8023 44.3575 4.1389
834 2 48.3287 30.9973 19.6155
835 2 3.6760 25.1711 39.8651
836 2 40.5189 38.5178 8.1353
837 2 28.3414 26.9176 8.2172
838 2 1.0024 9.7177 19.7998
839 2 10.7607 12.1433 19.1402
840 2 13.5166 20.1053 35.5402
841 2 1.2688 8.6425 15.7404
842 2 11.7807 38.7244 43.3373
843 2 25.1738 11.2640 24.0924
844 2 14.8471 8.4776 41.4234
845 2 9.9330 -0.4678 20.5141
846 2 6.7115 27.3633 15.0042
847 2 4.6167 5.9790 38.7359
848 2 0.9619 6.6141 25.8087
849 2 14.1530 47.1642 26.2667
850 2 8.6248 1.9549 13.6821
851 2 25.4457 42.8983 25.3609
852 2 36.8110 0.9776 34.5476
853 2 31.5805 48.4552 11.9680
854 2 23.1901 6.6101 48.6708
855 2 40.2947 15.3566 18.8985
856 2 22.7027 5.7318 36.8215
857 2 8.3092 29.2604 35.4761
858 2 42.0968 43.1203 48.7506
859 2 17.5531 26.8641 30.0311
860 2 48.5334 28.3262 21.8270
861 2 41.5698 39.2829 48.9466
862 2 27.8015 33.5680 26.7723
863 2 11.7891 7.0366 30.1715
864 2 15.8302 11.0330 13.0572
865 2 39.7332 8.7983 46.0080
866 2 47.7443 42.8959 0.8044
867 2 48.3336 5.7006 40.2547
868 2 48.4972 30.9753 11.2953
869 2 27.1886 0.5045 9.7051
870 2 42.7783 22.7138 8.5546
871 2 46.8320 4.3878 35.7172
872 2 26.9598 29.4564 44.4280
873 2 38.1302 38.4176 2.4711
874 2 34.1543 25.0311 1.9671
875 2 33.4564 48.4164 18.1522
876 2 9.0312 16.6096 14.3189
877 2 22.6125 9.4191 36.2417
878 2 38.0201 23.2538 19.8159
879 2 20.8281 14.1423 18.7720
880 2 36.7754 0.6593 6.3273
881 2 48.4995 12.0732 25.5559
882 2 27.1008 28.1722 27.1199
883 2 28.0912 41.7746 45.8169
884 2 32.2537 16.3469 37.5035
885 2 46.9738 29.0630 6.1502
886 2 4.1312 36.7036 15.5233
887 2 41.5135 36.2957 0.7099
888 2 15.6087 5.7509 49.6595
889 2 3.4349 3.8791 18.5270
890 2 27.5736 3.9830 13.5083
891 2 44.5051 36.9437 31.6843
892 2 26.0942 10.1375 30.1846
893 2 35.3970 -0.0469 45.0900
894 2 38.7882 9.9085 34.3170
895 2 11.8563 19.7997 25.3696
896 2 19.0107 42.2398 14.3888
897 2 27.3997 33.6999 24.6821
898 2 45.9076 27.9271 38.0612
899 2 17.3255 6.2597 20.2936
900 2 32.9034 31.0746 19.1669
901 2 5.1490 43.2194 41.2784
902 2 17.3285 19.0025 9.2380
903 2 18.9870 41.7670 35.3436
904 2 3.6417 24.3479 37.3680
905 2 2.0911 45.5350 38.1222
906 2 30.5761 14.0941 45.4418
907 2 46.1304 8.5648 14.4254
908 2 46.2064 48.5039 2.5125
909 2 34.4176 15.2852 25.1329
910 2 7.5599 13.3020 4.1283
911 2 1.2166 10.6398 3.5971
912 2 45.5061 34.9625 40.1727
913 2 21.2500 23.9736 46.6156
914 2 49.8584 45.4961 4.6414
915 2 46.1004 12.6360 18.6613
916 2 7.2297 30.3356 38.9073
917 2 4.7586 45.1595 30.5761
918 2 12.3885 26.9419 41.7257
919 2 45.7811 27.8691 14.9445
920 2 38.5847 9.9993 2.9080
921 2 44.6728 39.9281 3.6590
922 2 40.0578 2.4164 42.4928
923 2 19.3136 4.5715 45.7737
924 2 5.2078 31.1470 45.8092
925 2 15.6818 3.1822 16.9941
926 2 38.1576 30.4393 22.6819
927 2 39.3823 40.7902 47.9660
928 2 46.8042 -0.6518 1.1352
929 2 12.5115 26.0943 9.5621
930 2 24.8796 42.8945 25.6137
931 2 4.7234 7.0495 49.9364
932 2 6.2124 14.6306 41.4221
933 2 13.2735 16.5938 34.7889
934 2 19.6173 23.7180 27.5711
935 2 25.6277 9.8183 38.7861
936 2 27.9714 23.3437 0.1536
937 2 16.9488 19.5748 31.3371
938 2 9.3787 14.9505 42.2886
939 2 48.9074 13.5452 2.9460
940 2 43.0140 41.3272 15.9052
941 2 23.6075 16.3832 22.4208
942 2 38.7872 8.5189 12.1389
943 2 28.7117 5.5017 40.8967
944 2 34.9374 36.4064 37.5650
945 2 15.4183 28.9724 10.7833
946 2 26.5399 28.4404 36.3107
947 2 1.1930 9.8086 7.9431
948 2 28.1879 14.7061 12.0625
949 2 34.7978 30.1044 10.3713
950 2 25.2924 42.6522 0.6764
951 2 42.6611 40.6491 35.4280
952 2 32.5597 9.7617 18.6110
953 2 36.9891 1.6344 14.9049
954 2 45.9767 47.3102 16.5060
955 2 15.0138 10.7360 13.6949
956 2 35.6802 37.3106 48.6032
957 2 10.9975 49.2461 30.3183
958 2 31.8531 44.6372 25.3564
959 2 21.5191 30.1312 15.1154
960 2 14.7182 11.2193 20.1373
961 2 11.9515 32.2616 13.4154
962 2 6.5323 37.9256 8.8859
963 2 27.4828 17.3339 33.4533
964 2 42.7852 19.1691 11.9067
965 2 37.9190 44.3924 29.9417
966 2 12.4993 29.2277 31.3445
967 2 48.0682 11.9790 23.6118
968 2 19.8019 26.1008 31.3677
969 2 30.7183 10.8936 37.0217
970 2 6.5314 5.7087 4.8511
971 2 4.2703 25.0891 28.9854
972 2 43.9866 1.7231 49.6462
973 2 10.9106 43.3923 38.1254
974 2 3.0711 30.5536 32.5581
975 2 46.5927 25.1894 39.3581
976 2 24.8370 13.3450 11.3963
977 2 41.3434 19.1778 2.3646
978 2 11.6819 21.6820 5.3194
979 2 7.9776 15.7802 17.4855
980 2 39.8447 21.9740 14.9869
981 2 23.0117 5.2116 20.9983
982 2 29.5837 48.9371 22.2066
983 2 33.3538 15.4814 20.5608
984 2 11.7164 15.3052 37.3595
985 2 25.1927 1.0208 21.2167
986 2 26.1235 14.2905 3.7842