ITEM: TIMESTEP
1
ITEM: NUMBER OF ATOMS
1500
ITEM: BOX BOUNDS pp pp pp
0.0 50.0
0.0 50.0
0.0 50.0
ITEM: ATOMS id type x y z pdos_amplitude
1 2 44.5847 42.9219 29.2791 -0.0224
2 2 17.1758 34.0637 8.8884 -1.4938
3 2 20.1222 29.1772 32.0888 1.2631
4 2 32.5335 13.6788 38.3456 -0.1264
5 2 18.2129 31.4058 18.7731 1.7336
6 2 0.7879 8.3433 31.4608 -0.3261
7 2 6.7458 39.2432 46.7465 -0.7447
8 2 26.6988 6.7291 14.5082 0.2158
9 2 20.1847 47.6705 49.4494 1.2253
10 2 2.8478 34.1138 15.9286 1.0413
11 2 4.2128 21.9340 47.9038 1.7364
12 2 38.3240 0.0235 1.9763 0.5523
13 2 31.0693 17.1431 25.9599 -0.3441
14 2 3.7658 1.5067 37.1684 -0.3253
15 2 46.1407 23.9497 34.2121 0.5106
16 2 47.4855 46.2281 34.5226 0.0642
17 2 47.3739 22.3167 46.3260 0.4534
18 2 40.0987 5.5388 6.8515 -0.2893
19 2 10.7639 6.3763 30.3330 0.7948
20 2 48.7426 8.8312 45.9899 -0.7999
21 2 38.5689 49.9374 21.3968 -1.2128
22 2 31.0789 24.3817 25.3642 1.1553
23 2 21.0127 3.8207 4.8723 0.5442
24 2 33.5620 15.7013 41.7959 -0.5159
25 2 28.7027 23.6509 5.4346 0.5254
26 2 34.5776 26.8759 47.9323 -0.5485
27 2 15.7822 4.2451 25.2719 0.4769
28 2 8.3034 48.3822 18.9179 -0.7269
29 2 40.0229 24.2290 11.7740 0.8946
30 2 37.7150 2.2307 2.5513 -0.2620
31 2 46.6602 6.2115 6.8174 1.1827
32 2 36.5294 16.9263 32.1594 -0.8832
33 2 7.6981 6.8088 35.0768 -0.9787
34 2 44.4023 44.0708 28.4027 -1.1744
35 2 35.1778 0.1249 3.2521 -0.9186
36 2 23.2097 43.9147 38.6072 3.0462
37 2 13.2297 29.9466 32.7589 -0.3492
38 2 30.4878 45.3285 6.8076 -0.5260
39 2 27.4932 25.1192 19.2268 -0.0419
40 2 12.6101 18.9460 17.8117 -2.0784
41 2 0.7638 17.1750 3.3952 2.2071
42 2 43.0130 2.2806 0.1442 1.2129
43 2 7.0393 27.3998 44.3199 -0.1776
44 2 37.0489 13.7583 7.2438 -1.0345
45 2 33.4228 15.2874 0.0205 0.7400
46 2 48.4127 18.6165 48.8491 -1.4074
47 2 15.8816 2.1119 27.7023 -0.0021
48 2 18.6901 35.5587 25.7869 0.4838
49 2 6.8365 45.6120 11.6834 1.4041
50 2 42.4501 45.4416 45.3670 -0.1996
51 2 2.2810 38.3621 38.2799 0.9936
52 2 9.5631 36.4870 6.4169 1.4805
53 2 10.8502 47.0122 47.1266 -1.9571
54 2 4.9143 47.1838 12.1589 0.3443
55 2 45.6222 45.6466 13.5563 -0.8692
56 2 5.2726 15.8785 5.9567 -0.9394
57 2 47.0482 28.9577 44.6642 1.4650
58 2 15.9168 18.8078 23.7952 1.1187
59 2 47.6061 2.7320 15.5676 0.3803
60 2 18.5193 19.1133 21.7452 -0.4930
61 2 6.3998 11.8386 32.4354 0.8130
62 2 35.4408 44.2343 49.1639 1.6090
63 2 26.1394 24.1314 23.7421 1.3729
64 2 43.2987 42.4859 16.2542 -0.7816
65 2 5.3550 46.1708 24.6006 -1.4198
66 2 7.0014 45.2710 19.4774 -1.2764
67 2 48.5700 37.5477 5.6971 0.5971
68 2 21.1443 44.1011 32.4915 2.2562
69 2 27.5087 10.6035 21.9635 0.5231
70 2 34.1524 27.9971 27.6823 -0.1796
71 2 46.1358 21.0829 4.6850 1.5401
72 2 4.7689 35.9820 35.3687 1.5124
73 2 31.2955 6.0326 1.5794 0.3819
74 2 17.3488 17.2548 37.5478 -0.7296
75 2 19.8428 34.4236 12.1185 -2.4314
76 2 11.3982 9.6246 24.3489 -1.5871
77 2 48.0933 21.2507 46.9602 -1.0346
78 2 7.2933 6.6902 48.9648 1.9500
79 2 31.8905 38.4507 1.5208 -0.5721
80 2 10.6404 10.7795 2.4232 0.3076
81 2 11.2467 34.4557 30.1281 1.6713
82 2 48.1333 40.3193 45.2811 -0.9077
83 2 49.4724 16.6129 28.6267 -0.7259
84 2 35.5810 18.3939 6.1387 -0.5673
85 2 31.9611 3.6690 7.0039 0.6686
86 2 49.3047 16.1835 31.0992 -0.4293
87 2 43.8072 31.8774 33.1761 -0.4205
88 2 42.9527 1.9638 30.7033 -0.6127
89 2 27.2738 24.4163 36.9119 -0.5633
90 2 17.9182 43.3360 25.5132 0.0858
91 2 31.9450 40.4171 31.4159 0.2953
92 2 41.4414 29.8134 1.5137 -1.2899
93 2 9.9534 4.4941 30.1282 -0.0325
94 2 39.1718 49.7980 26.9280 -1.1362
95 2 40.6470 23.1809 4.5191 0.5223
96 2 19.2523 14.5106 5.0281 1.9851
97 2 20.0499 24.7341 18.9026 -0.5105
98 2 7.1484 19.2068 14.5167 0.3464
99 2 10.5649 31.6710 38.3444 2.6359
100 2 4.3166 22.5589 8.4040 -0.5381
101 2 32.4363 37.8830 43.7635 0.0320
102 2 35.9724 28.1279 38.9007 -0.5062
103 2 23.7904 0.3597 9.0972 -1.2986
104 2 46.4290 16.0446 37.3995 0.7198
105 2 31.7269 5.3038 43.3890 -0.6899
106 2 45.7643 16.3121 30.2676 2.0297
107 2 33.1334 2.6344 5.9886 -0.3284
108 2 19.8411 2.3536 35.5870 -1.8452
109 2 9.7141 5.2078 10.3878 -0.2270
110 2 20.3560 27.5197 19.0184 0.1772
111 2 11.8686 39.1184 45.7711 0.0678
112 2 31.9148 46.0886 4.4443 -0.3383
113 2 46.4561 9.0169 8.8389 0.6396
114 2 26.9180 18.4999 39.8903 0.1416
115 2 40.5019 36.3566 34.0648 -0.6778
116 2 36.3759 43.8459 0.5315 0.2308
117 2 25.6330 49.8480 32.3010 1.0773
118 2 38.7041 45.0105 21.7417 0.3295
119 2 22.9125 1.9515 16.9456 -1.1236
120 2 18.0682 13.8181 25.9038 0.4027
121 2 1.8704 38.1744 37.6704 -0.4407
122 2 29.7498 11.7053 5.6281 -1.8346
123 2 44.2696 36.7832 27.5472 0.2168
124 2 19.0714 40.2687 30.2815 0.9993
125 2 28.3079 29.3845 5.0075 1.2272
126 2 37.0703 46.9064 4.0607 0.6612
127 2 7.1554 43.8734 15.5925 1.7382
128 2 47.6794 2.5558 11.8071 -0.9325
129 2 7.3667 3.6997 29.1833 -0.1134
130 2 6.6073 49.9747 10.6767 0.1196
131 2 31.6401 19.4681 28.2414 -1.8523
132 2 19.8138 34.4365 19.9074 1.4710
133 2 12.0813 42.8791 12.5481 -1.7186
134 2 48.8468 20.8156 24.0567 -0.8983
135 2 27.9935 36.5556 16.5672 -0.5105
136 2 28.8967 32.6490 19.2923 0.3056
137 2 6.4299 18.2055 49.0202 -1.4610
138 2 34.4556 19.1186 6.0711 -0.0391
139 2 28.4258 33.9296 32.0014 1.4320
140 2 14.4321 19.0316 2.2291 0.6362
141 2 0.4803 46.2374 49.8090 -2.0515
142 2 4.7922 14.7504 49.2797 0.0170
143 2 28.6614 41.3925 35.6805 -1.1732
144 2 41.8023 11.0583 26.9678 0.1290
145 2 16.9719 36.9686 32.1235 -0.6801
146 2 36.6936 39.8582 40.9285 -0.6461
147 2 14.8728 48.4914 29.4155 -0.1073
148 2 24.3850 2.9871 47.7402 -0.5269
149 2 1.5989 38.9852 20.5346 -0.2845
150 2 33.9795 24.8677 25.2557 0.6880
151 2 46.9412 19.7069 18.4520 0.1868
152 2 16.6647 26.6773 43.7969 1.5069
153 2 38.8974 37.3224 10.2482 0.1987
154 2 15.2424 34.5996 13.6350 1.7394
155 2 49.8891 23.1505 32.3764 0.3660
156 2 28.3571 35.0530 12.2068 -0.5591
157 2 24.5470 29.2002 29.1035 -1.1190
158 2 30.3696 31.3061 21.6998 0.9627
159 2 18.9400 20.8572 46.8039 -3.3300
160 2 19.4700 40.8086 44.6574 -0.3748
161 2 30.2007 16.2349 46.3486 1.2701
162 2 49.2120 41.4777 17.0352 -0.2399
163 2 38.0213 44.4535 34.3973 1.4748
164 2 42.9635 13.3884 48.8881 0.3901
165 2 41.3126 24.2178 30.6256 -0.8818
166 2 4.9588 3.0799 16.7649 1.8577
167 2 6.0912 33.8807 1.3603 -0.6559
168 2 18.4785 44.7463 33.3506 -0.5320
169 2 39.3728 43.3009 41.6132 -0.0109
170 2 29.5836 18.9238 5.2023 0.1677
171 2 45.8546 29.5830 15.9488 -1.0918
172 2 16.5398 10.5411 8.9779 0.4247
173 2 23.3581 2.5588 40.6214 0.3414
174 2 7.6214 23.3868 35.7502 0.8936
175 2 9.9492 37.6676 40.0581 0.3252
176 2 48.1081 2.1447 35.6956 -0.4764
177 2 25.4240 48.5743 24.0090 0.7215
178 2 43.1613 31.5008 15.5890 0.3024
179 2 18.2528 29.8691 4.1474 -0.0816
180 2 39.8299 11.4710 39.5499 -0.9242
181 2 16.7236 7.1425 0.0857 -1.3637
182 2 41.6704 1.4337 31.7499 1.5052
183 2 0.9959 11.3921 2.2149 1.1477
184 2 35.6119 9.8857 40.6728 -1.1795
185 2 22.9507 5.8868 44.6727 1.0864
186 2 43.2060 31.5131 28.4428 -0.2014
187 2 16.9608 43.6607 27.5011 -0.5359
188 2 39.6316 42.3904 46.6397 -0.4997
189 2 37.3019 20.0271 37.0177 -0.1882
190 2 21.6950 42.2373 34.9049 -0.2563
191 2 9.7271 27.4072 23.7798 -1.4519
192 2 40.4540 46.2671 34.1115 1.1192
193 2 34.1646 9.1395 31.8527 -0.6230
194 2 24.5199 1.5864 17.2426 -1.9174
195 2 22.0747 14.5529 26.7878 -1.9985
196 2 6.3055 44.2741 8.6944 0.5227
197 2 38.0609 8.2802 27.8154 0.4430
198 2 45.6906 1.6406 2.5893 0.2929
199 2 9.5877 0.7883 35.3559 0.5449
200 2 14.8867 20.0308 22.5810 -1.3115
201 2 29.5225 40.5421 49.5338 -0.8965
202 2 25.4826 31.1328 2.7842 1.4880
203 2 48.6281 39.0467 13.8733 -0.3802
204 2 30.4829 35.4492 26.8223 0.5248
205 2 18.1510 1.1024 24.8634 -0.8207
206 2 26.2019 15.6395 40.8043 1.0401
207 2 38.2347 5.6351 32.0704 -0.8772
208 2 2.6644 10.9298 3.4704 0.4851
209 2 6.6035 23.9343 2.5089 -0.1039
210 2 36.5470 10.7610 44.9117 -0.7621
211 2 36.6192 2.9965 45.9505 0.2898
212 2 44.5391 14.6785 39.5172 -0.8836
213 2 36.8205 15.1050 2.2184 1.0603
214 2 42.6391 6.5147 3.5228 1.7015
215 2 1.7071 39.0220 27.8237 0.1068
216 2 23.6759 27.7476 7.7594 0.4696
217 2 7.4623 18.1823 32.3129 1.3513
218 2 4.4542 0.4688 28.5298 0.0403
219 2 37.8660 15.3229 21.9743 1.9931
220 2 10.3976 32.0766 28.0161 -1.2422
221 2 25.1687 49.3902 9.9345 -1.4886
222 2 28.9561 22.2804 34.5709 -0.3283
223 2 2.7400 26.3663 28.4519 -0.4461
224 2 37.3442 19.2735 28.7535 0.2712
225 2 29.8177 47.4662 31.8700 -0.1447
226 2 42.3776 17.8702 41.5122 -0.4595
227 2 14.5449 22.9763 30.3234 -0.1030
228 2 26.1185 19.3344 42.7550 0.7874
229 2 33.7295 35.1721 10.6469 1.6398
230 2 5.3644 43.6220 38.7190 -0.2666
231 2 33.6693 48.5025 12.9989 -1.7841
232 2 26.3105 16.4421 0.1998 -0.1107
233 2 49.7015 47.6511 1.0055 -1.9600
234 2 39.2817 36.2142 24.3338 -1.0627
235 2 30.1001 34.1742 41.0289 0.3505
236 2 28.3042 45.9824 7.3348 0.1528
237 2 25.3688 15.1343 16.2274 -0.0054
238 2 37.4629 31.5645 45.4393 1.0003
239 2 33.9165 23.9773 28.0163 0.9995
240 2 29.9785 29.2010 22.5416 1.2081
241 2 3.3156 14.5238 26.4267 0.7673
242 2 2.6722 29.9143 36.2060 -0.6446
243 2 20.2324 6.5226 46.1503 -0.2591
244 2 2.3509 45.7518 18.2700 -0.6609
245 2 3.8846 5.2172 32.4010 -1.7806
246 2 36.5093 25.5507 48.4914 0.8340
247 2 18.3098 37.4703 36.0176 1.5987
248 2 15.2642 16.6719 11.6034 -1.5940
249 2 39.7438 8.3069 18.0646 1.2507
250 2 8.7089 47.1335 7.6266 0.7602
251 2 30.3664 30.7080 41.5587 -0.0623
252 2 47.7682 7.8620 29.8341 0.7549
253 2 8.7179 28.0531 4.5189 -0.5686
254 2 46.1574 3.2345 12.9622 0.8192
255 2 1.7331 15.6866 4.9964 0.7267
256 2 4.9351 37.3394 24.9222 -0.3231
257 2 34.4105 19.1074 5.8187 1.2852
258 2 24.6491 5.7677 32.6311 -2.5282
259 2 11.6501 16.9521 11.9326 1.1175
260 2 19.2977 44.3394 8.4225 1.3951
261 2 3.9387 30.6655 37.4909 -2.0975
262 2 14.6803 20.5216 41.5643 0.3642
263 2 10.5519 18.1893 10.3735 -1.0240
264 2 33.4563 10.9779 17.0656 0.1269
265 2 19.3520 41.1709 46.8549 1.2343
266 2 32.9079 46.0947 31.3400 0.3941
267 2 34.2204 18.7478 47.2872 0.2512
268 2 37.7536 27.5165 47.0184 -0.1173
269 2 7.2662 24.8171 28.5161 -1.1717
270 2 19.4385 22.6445 41.2355 0.3582
271 2 24.2409 6.9844 8.7420 -0.8151
272 2 40.5282 9.1456 19.1644 0.2294
273 2 2.9064 4.6081 12.4384 0.7546
274 2 20.1285 26.4706 47.6702 0.4881
275 2 35.3612 20.4569 13.8685 -0.2347
276 2 35.9213 24.2305 49.1042 0.9718
277 2 46.2235 30.9656 3.2444 -0.6995
278 2 7.7254 45.6731 36.8376 0.6469
279 2 30.0317 49.3255 9.9358 -0.1922
280 2 12.4955 9.3795 34.4881 0.8960
281 2 11.6904 40.7969 39.8976 0.2841
282 2 4.1877 27.2752 43.5936 0.6489
283 2 11.9414 22.2504 20.9019 0.3250
284 2 42.1895 49.7315 16.0891 0.5572
285 2 36.1670 23.3371 18.6068 -0.6273
286 2 2.3491 3.1257 49.2685 -0.1666
287 2 19.2552 1.8214 38.5097 -0.6303
288 2 42.4365 48.0453 20.0195 -0.4162
289 2 24.6859 46.6200 4.7248 0.3778
290 2 45.5843 15.6232 5.6505 3.1978
291 2 41.2541 33.4247 14.9721 0.6165
292 2 1.4216 45.9861 5.2742 0.1979
293 2 15.6568 15.4744 28.9428 0.2449
294 2 4.3320 26.4066 11.7422 0.9489
295 2 23.7040 23.3180 16.7627 0.0412
296 2 46.1785 24.5921 30.5779 -1.0872
297 2 47.2353 33.7760 13.0097 -0.9370
298 2 25.8316 21.2165 45.8959 -1.3342
299 2 41.3329 19.0777 12.5875 -0.6518
300 2 48.6284 34.1243 21.7127 0.4239
301 2 21.2852 49.9801 1.5355 0.0971
302 2 36.7810 33.0841 0.5894 0.1664
303 2 10.8202 24.8405 3.5240 -0.7950
304 2 34.8139 12.9346 44.4155 0.0606
305 2 28.9479 3.2802 3.4062 0.6456
306 2 31.1886 49.6987 31.0956 -1.0157
307 2 16.0112 41.2003 22.2644 -0.4529
308 2 21.6534 31.4719 27.6030 2.2037
309 2 6.5723 12.0744 49.0954 0.3545
310 2 15.8351 44.1470 10.3672 -0.8764
311 2 47.9728 18.2132 21.1703 -0.2039
312 2 31.2078 46.0008 22.3848 -1.2228
313 2 19.2115 23.7154 9.1900 1.5735
314 2 32.7484 27.2802 24.4777 -0.7785
315 2 19.0844 17.1669 21.3627 0.7166
316 2 11.2530 46.9049 25.4520 0.6637
317 2 30.1663 34.4433 12.7848 -0.0810
318 2 23.9480 34.9698 28.6522 -0.8461
319 2 45.1921 3.5357 7.6929 0.7763
320 2 6.8303 48.2340 10.0727 -0.6033
321 2 15.9189 16.4071 42.1428 -1.3206
322 2 2.8588 9.8731 4.4930 -0.1400
323 2 33.3778 49.5936 3.6519 0.9218
324 2 32.3976 34.2082 36.1855 2.3298
325 2 7.4521 47.6291 23.2320 -0.3941
326 2 34.6079 7.7461 5.1868 0.7062
327 2 5.5851 13.4472 7.4595 0.9437
328 2 20.9366 34.5760 2.2442 0.5225
329 2 32.3448 17.5661 10.8216 -0.4845
330 2 22.0990 7.6853 14.5537 -0.3833
331 2 48.5255 22.1225 37.7326 0.9239
332 2 45.7266 26.8688 39.9386 -0.3849
333 2 2.6215 1.1030 10.0287 1.0775
334 2 44.8592 38.5946 13.8420 -0.5039
335 2 17.8709 40.6987 39.9283 -0.3226
336 2 9.2652 38.3653 40.3785 0.5906
337 2 31.6859 18.4753 4.2419 0.8575
338 2 41.4925 26.4200 24.4204 -0.1035
339 2 40.2564 6.3437 13.3355 1.2396
340 2 3.7155 49.8515 23.7473 0.0202
341 2 7.7572 27.5336 4.2720 -0.3979
342 2 20.7496 48.3185 39.1319 0.5243
343 2 24.6344 30.0011 13.0028 -0.0981
344 2 31.4705 0.5578 39.6474 -1.9399
345 2 20.7454 6.0291 26.1815 0.0238
346 2 46.0841 6.5353 44.0377 -0.0456
347 2 38.3048 46.6113 15.7074 -0.4513
348 2 27.0716 42.4283 35.2914 0.5229
349 2 11.6086 32.9434 8.3874 -1.1852
350 2 44.1513 30.0540 24.6577 0.4020
351 2 15.5153 30.4208 43.4094 0.0870
352 2 43.4257 4.1664 27.6130 0.4701
353 2 11.7641 47.1389 43.9349 0.1503
354 2 43.1259 24.2842 42.2173 0.3470
355 2 9.8916 41.2920 7.6962 -1.9840
356 2 4.4724 7.0181 28.3282 -0.3984
357 2 47.3209 43.8676 2.4993 0.4399
358 2 48.9860 18.8586 21.5455 -0.4545
359 2 35.0840 32.5826 28.2986 -1.4444
360 2 33.5243 31.5644 11.7035 0.8657
361 2 4.4595 14.8842 22.7614 0.5631
362 2 22.7184 49.6177 3.7600 0.0567
363 2 12.4546 34.3596 13.5224 0.7470
364 2 47.9250 25.4856 24.1272 -2.0348
365 2 28.0283 5.4334 21.7832 0.4493
366 2 21.2265 38.8526 28.0923 1.5020
367 2 0.4357 9.0435 28.5147 0.4930
368 2 36.3306 4.3378 43.3260 -0.8225
369 2 49.8880 22.9484 24.1140 -2.1413
370 2 18.7824 26.0482 3.0277 -0.5324
371 2 2.5325 21.1765 47.1847 -0.6732
372 2 0.2337 15.6016 28.3450 -0.4780
373 2 4.9758 47.3354 24.3024 -0.0236
374 2 38.9532 38.6270 13.9506 -0.6716
375 2 34.0028 27.6967 2.1206 -0.7464
376 2 32.1993 28.7265 39.2132 1.8321
377 2 8.6577 1.1837 29.3687 2.0679
378 2 5.4495 23.4638 19.3952 -0.2223
379 2 27.0528 13.7517 45.9757 -0.2218
380 2 2.3110 35.3633 23.5587 -0.5162
381 2 20.9797 21.2289 30.4427 -1.1885
382 2 38.3219 1.7397 48.2054 0.7475
383 2 33.7042 28.9338 12.1152 -0.1634
384 2 27.5274 3.4646 12.4793 1.5548
385 2 38.6702 49.2296 27.0839 0.7400
386 2 0.6212 31.5605 34.4708 0.3262
387 2 3.1902 16.2548 7.6413 -0.0862
388 2 8.0903 34.2362 26.4217 -0.6967
389 2 8.7932 36.2449 40.0806 -1.3599
390 2 3.8619 49.8936 4.8625 -1.0021
391 2 8.8966 13.5158 44.2339 0.1526
392 2 39.4015 39.4429 35.4721 -0.2891
393 2 33.8309 31.8180 8.2761 -0.3204
394 2 37.4936 38.2028 44.4966 -0.3228
395 2 46.0875 30.1966 6.5707 -0.5218
396 2 9.2728 6.0583 24.1052 0.2977
397 2 2.4105 27.0435 21.5846 1.0710
398 2 47.2096 27.2813 40.9967 1.6109
399 2 2.0793 32.5677 8.3066 1.6888
400 2 42.6411 44.0252 39.7345 -0.6382
401 2 33.1722 49.7514 33.9111 0.0865
402 2 44.5341 43.0589 16.8634 -0.0943
403 2 8.8912 47.1708 45.0721 -0.0593
404 2 42.3963 13.6079 33.3768 0.0152
405 2 45.2058 41.8708 28.2202 0.4147
406 2 7.8390 40.2386 47.4100 -1.5200
407 2 49.6723 4.5321 24.3550 -1.1398
408 2 34.9405 49.0275 23.4535 1.8512
409 2 11.8877 7.8437 5.2098 -0.2755
410 2 42.8578 6.0486 29.6695 -1.2257
411 2 34.2857 30.7306 35.4345 -1.0407
412 2 8.3847 39.6037 8.3091 -0.4817
413 2 9.3920 4.6704 20.8623 0.6944
414 2 43.5569 26.3647 15.0582 0.2249
415 2 24.8065 25.9434 12.3055 -0.7687
416 2 29.3413 41.8303 46.5655 1.2642
417 2 25.3819 18.7522 29.5230 -0.1279
418 2 15.6014 48.2146 45.6327 -0.6981
419 2 33.9358 8.9539 35.8103 0.2998
420 2 9.3746 9.6235 1.7562 -0.3704
421 2 16.7978 47.7616 0.5763 0.0651
422 2 2.9256 22.2893 29.6222 0.2093
423 2 48.5157 34.4380 35.5139 1.5505
424 2 21.8992 25.0309 19.4572 0.1527
425 2 40.3709 42.0371 32.0489 -1.4425
426 2 19.0065 37.8387 39.9643 0.0484
427 2 39.9011 21.7271 5.1696 -0.3021
428 2 30.7821 43.5204 19.1119 -0.2524
429 2 32.4162 7.3280 6.7181 0.3844
430 2 28.9215 12.4376 21.3860 0.7329
431 2 8.2011 35.0214 36.5915 -0.1239
432 2 5.2506 15.3278 33.4568 0.9363
433 2 36.2065 3.7588 29.2285 0.5614
434 2 27.4364 8.2645 28.1784 -0.8080
435 2 33.0523 24.1195 16.7725 -0.3154
436 2 45.2222 2.2031 13.7857 -0.8477
437 2 43.7189 21.1596 6.0603 -1.1661
438 2 27.7039 18.5291 26.5999 0.2872
439 2 47.2743 48.3409 30.0349 1.1134
440 2 24.3890 40.0564 22.7563 -0.2208
441 2 28.5140 26.1396 1.6859 0.3499
442 2 26.9593 26.4619 49.4407 -0.5209
443 2 24.6525 12.6421 37.2316 0.7678
444 2 5.7825 26.9554 30.0631 -1.5368
445 2 11.1570 26.9880 20.9233 -1.0922
446 2 2.1876 9.2664 41.6093 -0.8502
447 2 9.0675 6.2817 35.0013 -0.6232
448 2 43.1096 16.7334 4.3498 -1.2265
449 2 26.5777 12.5609 42.0187 2.3199
450 2 45.4988 21.8580 7.5767 -0.3355
451 2 24.5610 4.2864 29.9673 -0.7330
452 2 26.9590 18.8395 13.0153 -0.3330
453 2 42.4433 23.6427 29.9313 -0.9269
454 2 2.2380 24.2452 16.2889 -0.2156
455 2 6.5940 15.8440 32.9861 -0.3581
456 2 10.8741 0.7518 4.7919 -0.2416
457 2 22.3630 13.0216 14.1396 -0.8486
458 2 7.0805 36.7554 34.0761 0.8268
459 2 23.7418 40.2016 33.5085 -1.8439
460 2 10.9225 49.9853 35.5166 -0.1401
461 2 44.6871 18.5780 42.5814 -1.4956
462 2 38.1917 1.4409 49.5336 -0.7568
463 2 32.0990 34.1509 42.1270 -1.9259
464 2 9.8762 21.3697 30.1363 -1.3149
465 2 46.2219 10.9826 17.1169 0.1044
466 2 42.5674 32.8332 48.7574 -1.5388
467 2 34.0892 1.4581 11.8927 1.2696
468 2 26.3128 33.4093 1.0630 -0.6636
469 2 7.8807 19.7875 38.7286 -0.6982
470 2 12.5118 31.5044 3.5382 -1.6777
471 2 24.6946 24.3074 41.3153 -1.5484
472 2 39.9620 21.7748 39.0197 0.4329
473 2 11.7380 25.0562 5.9797 0.3255
474 2 31.2943 34.3717 4.9864 -0.1189
475 2 22.6775 44.7619 19.5128 0.4866
476 2 27.9294 44.8184 34.6711 -1.1599
477 2 45.8249 44.1460 35.6800 1.0320
478 2 8.9812 19.0339 10.1137 -0.7834
479 2 6.7291 14.2441 19.5006 0.2940
480 2 16.0451 31.5756 2.2409 -1.0914
481 2 32.6494 11.9666 48.4294 0.9198
482 2 5.5074 37.7913 49.9398 -1.2849
483 2 13.6922 11.1317 40.6856 -0.3296
484 2 36.9249 16.8765 29.7090 0.7417
485 2 22.2991 25.8991 12.5156 1.5392
486 2 39.0379 5.8538 14.8973 1.2230
487 2 4.7537 40.2673 15.0755 -1.3232
488 2 4.0863 3.0073 14.5960 -0.4428
489 2 27.6389 21.6401 38.0423 0.1340
490 2 2.6507 45.7678 8.5785 -0.9504
491 2 15.2810 16.7103 49.7438 0.3247
492 2 35.0448 25.6552 23.7926 -0.0857
493 2 48.3746 6.4924 42.4795 0.4539
494 2 19.1535 24.5943 25.4641 0.3448
495 2 36.6316 6.7196 37.1782 -0.6190
496 2 9.9859 8.7073 27.4979 -0.4057
497 2 34.6944 14.1020 2.7534 0.8930
498 2 33.5863 8.0755 28.3736 -1.5425
499 2 29.7390 39.7289 48.4154 -0.2048
500 2 31.2867 42.4039 21.4083 -0.4956
501 2 12.4433 4.4332 41.6250 -0.3295
502 2 7.6430 4.0898 22.0171 0.1042
503 2 27.0537 11.4242 35.5071 -1.4315
504 2 21.5935 4.1385 28.0664 -1.5839
505 2 8.6924 28.7485 17.4634 0.0486
506 2 30.8745 0.8561 10.6975 0.6534
507 2 12.6734 31.3368 4.1717 0.6628
508 2 42.1040 34.0647 36.5199 0.2489
509 2 44.5575 30.9768 1.0426 1.4424
510 2 9.5392 13.4689 33.7677 0.3576
511 2 49.6793 28.7662 12.0749 -1.0873
512 2 23.6495 35.5688 15.5774 -0.6585
513 2 24.1540 26.5539 31.7816 0.9555
514 2 34.1690 10.9731 26.6249 0.9428
515 2 6.3894 42.3021 25.3112 -0.8384
516 2 13.4508 28.6643 26.2585 -0.7948
517 2 29.6395 29.1596 28.7782 0.7820
518 2 31.1243 36.9964 15.5844 0.7310
519 2 48.4691 17.7928 15.9269 2.3025
520 2 0.9469 49.0935 40.7099 1.4886
521 2 34.7606 40.9448 3.1174 -0.5944
522 2 22.3978 6.6953 23.0468 0.9121
523 2 25.3384 7.4071 15.4124 0.1973
524 2 44.3243 40.7941 36.5312 1.3925
525 2 42.4527 0.4662 38.9387 -1.0213
526 2 8.9599 47.3828 10.9286 -0.7876
527 2 32.9914 37.4362 22.9468 -1.3282
528 2 41.0988 31.7730 19.3657 0.9866
529 2 21.9139 45.2830 7.2479 -0.6048
530 2 28.3314 22.4316 37.5604 0.0854
531 2 7.8461 1.4503 16.7650 1.1721
532 2 47.9774 17.5486 10.7683 -1.0637
533 2 40.0337 41.2246 31.1127 -0.3950
534 2 22.0159 47.6976 29.0391 2.7260
535 2 10.3845 37.5603 42.5614 -0.1733
536 2 32.7481 32.0051 48.6092 0.5723
537 2 40.5613 14.5636 6.2674 0.4315
538 2 14.7776 38.8119 20.4595 -0.9918
539 2 17.8204 6.8681 38.6981 -0.6731
540 2 42.7451 21.6589 18.1425 1.6193
541 2 27.7984 32.4334 32.1869 0.5775
542 2 33.6602 7.3699 28.3402 1.3919
543 2 42.3888 34.2139 20.1949 0.4506
544 2 28.8187 32.7373 12.6827 0.3770
545 2 23.2074 13.6406 1.6994 -0.9480
546 2 45.0644 40.1647 45.9995 -1.1119
547 2 14.6947 35.6151 32.1712 0.6983
548 2 26.9735 15.5484 16.9537 -0.1696
549 2 4.3875 8.7785 44.5213 -0.4657
550 2 15.2302 3.6824 30.7222 -0.0219
551 2 39.8515 19.5612 20.5159 1.0520
552 2 2.3868 14.0959 2.4843 -0.9176
553 2 18.8278 6.8539 36.3712 0.4072
554 2 16.9717 14.1080 43.5936 -0.3278
555 2 26.0692 48.6610 8.4313 0.3472
556 2 45.0664 35.0630 8.9189 0.6274
557 2 32.6223 10.7788 13.3610 -0.6423
558 2 38.5446 46.7445 0.8510 -0.5739
559 2 36.0396 20.2214 4.4216 -0.5117
560 2 1.5141 20.3875 43.8166 1.5950
561 2 8.2353 41.8905 16.0233 -0.6440
562 2 18.7695 21.6631 48.7998 1.0089
563 2 12.2291 30.5694 28.1810 0.2050
564 2 21.6752 25.1713 11.9621 1.2053
565 2 47.5625 18.7679 40.6036 -0.6654
566 2 7.5807 43.1244 28.8114 -1.0414
567 2 0.4101 32.9812 47.4092 -0.9344
568 2 36.2729 34.1413 28.4778 -0.0509
569 2 47.3959 34.3753 7.0244 1.3127
570 2 38.3260 11.2946 14.8657 -1.0967
571 2 24.1135 18.9279 11.0826 1.4773
572 2 39.4142 43.1386 28.6372 -1.0723
573 2 44.2707 41.6769 3.6885 -0.4947
574 2 44.6833 10.6203 22.4234 0.1979
575 2 44.8469 5.1675 37.4561 -1.3961
576 2 29.8931 34.6234 14.0892 0.6708
577 2 47.2423 40.6604 5.4982 -1.3681
578 2 41.9131 42.9605 45.7264 -0.5481
579 2 38.4701 9.1323 17.2938 -0.9195
580 2 18.6643 25.9607 11.0047 1.0861
581 2 7.3183 22.1238 11.3485 1.0512
582 2 39.1474 40.6901 48.3849 -0.4796
583 2 10.0515 34.6834 35.0479 -0.0244
584 2 14.3803 36.4421 34.8863 -1.1928
585 2 47.5075 22.6977 3.3915 0.6277
586 2 32.4734 1.9236 43.2437 -1.5661
587 2 41.9648 25.0340 24.1131 -0.7534
588 2 10.9120 4.7775 14.9862 -2.0972
589 2 9.3648 17.7245 38.7549 -0.2883
590 2 29.8473 37.3881 13.7352 0.2049
591 2 12.3675 30.3711 21.1692 -0.6441
592 2 26.0216 42.0415 48.8384 -1.8090
593 2 4.9674 1.1227 10.1150 0.5551
594 2 27.7883 43.4897 45.9656 -0.9017
595 2 47.9601 31.4188 10.1392 -0.0429
596 2 5.9020 6.1853 2.3125 0.8451
597 2 31.4273 27.0107 48.3555 -1.0276
598 2 11.8794 7.8140 47.5867 -1.5723
599 2 19.7511 8.6819 21.5827 -0.1287
600 2 8.6099 35.0471 11.2369 -0.3081
601 2 10.4077 11.8374 21.2773 -0.3546
602 2 2.5246 30.5213 26.6484 -1.2182
603 2 3.0939 33.6088 43.3757 0.0967
604 2 2.3444 12.8039 13.3897 0.9456
605 2 11.0530 40.1118 1.8414 -0.1266
606 2 22.3243 38.0802 38.7152 0.9986
607 2 6.7156 28.4173 9.3885 -1.6285
608 2 27.3820 25.4945 21.3411 0.2704
609 2 19.8375 19.6742 23.6728 -0.5567
610 2 4.7138 44.1199 49.2320 0.0566
611 2 21.1646 35.5223 14.0816 0.3018
612 2 18.8156 2.8908 28.8836 -2.1786
613 2 23.7409 21.3073 37.3035 0.0425
614 2 43.7105 34.6329 27.8900 -1.5171
615 2 7.6376 31.0911 44.9382 0.0287
616 2 41.5691 27.6578 27.3494 -0.3745
617 2 10.9849 12.5958 35.1219 0.2332
618 2 37.0575 36.3299 9.7068 1.1924
619 2 23.0500 10.2753 43.2328 0.4539
620 2 19.0801 25.5251 46.3225 1.3811
621 2 41.0643 27.6263 39.4473 1.2734
622 2 8.5881 26.0455 24.7633 -0.8984
623 2 30.6205 14.7892 11.0440 0.1969
624 2 23.3945 22.2838 11.1263 -0.2877
625 2 39.8440 42.3649 48.1630 -0.5951
626 2 7.7015 11.9058 6.1173 -1.0327
627 2 6.0538 21.6245 49.0735 2.4056
628 2 36.8230 41.0914 35.3206 0.3687
629 2 23.5630 17.5195 29.5955 -0.4294
630 2 28.0086 27.7363 48.1605 2.0065
631 2 49.0530 23.8566 46.1110 1.3923
632 2 2.9668 27.1220 0.2274 0.1624
633 2 32.4264 14.2899 14.1295 0.3567
634 2 39.5693 26.5142 30.5723 -0.9255
635 2 4.4908 30.3528 2.9185 -1.5381
636 2 14.0501 14.1508 28.6176 -0.7453
637 2 38.0664 20.9054 5.0953 0.6530
638 2 31.8381 21.2045 22.2099 1.4473
639 2 6.6240 45.4441 30.8212 0.0957
640 2 14.9969 29.0741 34.3674 -0.5447
641 2 7.4841 3.5263 13.3786 1.6628
642 2 16.6484 40.6417 30.6981 0.1020
643 2 43.2083 15.1361 37.6880 0.0835
644 2 30.5636 5.4233 2.6842 1.7426
645 2 26.3214 6.2243 12.3169 -1.7915
646 2 42.2232 14.3741 19.2332 -0.8239
647 2 47.3916 7.5292 27.3354 0.4571
648 2 27.9395 43.7065 13.4831 1.8283
649 2 33.6340 45.4477 15.3339 -0.0294
650 2 16.5659 42.9746 48.1381 -0.0737
651 2 16.0493 25.5465 11.7419 0.2861
652 2 45.1100 2.4958 30.6380 -0.7537
653 2 35.3771 45.6546 48.5995 0.5695
654 2 3.6165 9.7784 16.9923 0.3323
655 2 1.5748 11.4893 21.5118 -0.3930
656 2 24.3194 28.7691 34.8262 -0.2470
657 2 31.0754 33.6933 27.8984 0.6571
658 2 18.6693 18.8774 41.8188 0.8131
659 2 24.0875 20.0486 26.5725 -0.0231
660 2 6.3965 7.4787 29.9071 -1.9052
661 2 4.3701 29.8287 30.3038 1.0516
662 2 2.1750 46.4127 33.3261 1.2239
663 2 0.1366 33.8923 25.6960 -0.1229
664 2 45.0053 38.6280 10.5861 -0.3568
665 2 0.2198 30.1414 7.0263 -1.9100
666 2 24.1141 18.5597 6.8614 0.2734
667 2 20.5929 19.7424 35.6011 -0.6825
668 2 35.7121 6.2629 23.5460 0.4895
669 2 12.2316 27.1206 8.4631 -0.6850
670 2 16.1779 11.1812 29.1662 -0.3386
671 2 38.7113 25.9662 44.1639 -0.9879
672 2 21.8329 35.3170 32.1995 1.1037
673 2 29.7937 2.1183 34.2312 -0.9691
674 2 32.1811 1.1112 21.4262 1.6790
675 2 35.4066 11.7449 7.7035 0.2337
676 2 4.4559 9.7408 47.8436 -1.0484
677 2 37.6101 45.3019 45.5641 -0.4087
678 2 31.9068 11.3523 0.3882 1.4444
679 2 36.0852 4.3589 39.9540 0.9155
680 2 2.3240 16.4035 37.2014 -1.3650
681 2 34.4545 7.8939 13.5527 1.1428
682 2 13.2671 12.8380 2.4694 -1.4796
683 2 5.3229 27.8637 26.6378 -1.0055
684 2 45.4558 4.9057 2.2286 -1.9707
685 2 14.0753 21.5207 16.9762 -0.4650
686 2 39.0613 45.2683 44.9255 3.6347
687 2 28.6340 0.1408 46.6030 0.5950
688 2 47.8853 7.9569 4.7568 -2.4474
689 2 5.9700 0.7108 39.7900 -2.3234
690 2 22.3614 31.2832 27.3578 -0.1487
691 2 12.2747 37.6281 15.9117 -0.4466
692 2 0.0701 18.4410 0.9499 0.6753
693 2 28.8602 21.7865 46.6274 -2.1729
694 2 25.7129 42.2721 11.5938 -0.0057
695 2 41.0363 39.8172 3.7825 0.9203
696 2 9.1280 3.5376 7.3827 0.6088
697 2 17.8401 36.1749 33.0669 0.3253
698 2 0.5195 48.6175 39.1448 0.8214
699 2 16.6617 6.5759 37.8880 0.4331
700 2 44.5646 10.4675 15.5787 -1.5776
701 2 31.4483 24.1985 24.6365 0.5499
702 2 18.9988 1.4781 5.1424 -0.9659
703 2 23.1795 15.5103 30.1395 -0.0659
704 2 7.7711 12.8535 35.8998 0.0921
705 2 26.4919 4.1597 4.6389 0.2720
706 2 43.3706 3.8123 17.0454 0.1206
707 2 18.1354 43.4792 48.1790 0.6907
708 2 4.3576 20.3868 16.8627 -0.0963
709 2 38.7041 16.3363 46.1915 -0.4775
710 2 30.2482 20.8709 41.1182 -1.7014
711 2 2.7892 42.6176 6.8531 0.3570
712 2 41.9701 10.9147 48.0008 0.0673
713 2 19.4189 47.9308 25.4182 1.4751
714 2 8.5812 41.2217 19.6354 0.8543
715 2 48.8794 20.5518 42.6548 0.1617
716 2 10.3319 15.9241 3.6401 -0.4232
717 2 35.9561 24.6091 42.0240 -0.2684
718 2 11.7177 46.3331 28.2868 -0.0237
719 2 37.8163 39.0259 0.1580 0.2683
720 2 0.5500 9.8890 5.7540 0.1288
721 2 45.2766 20.6020 31.8190 -0.5604
722 2 5.5705 8.0948 34.1275 0.8957
723 2 0.4288 6.1997 3.6162 0.4782
724 2 41.6173 15.8076 15.0746 1.2589
725 2 6.4557 19.3713 43.3971 -0.5917
726 2 36.9218 14.7220 4.3488 0.5775
727 2 0.2773 23.0841 7.6921 -0.3066
728 2 41.5175 10.7035 6.8720 2.0697
729 2 35.1685 29.5824 41.3120 0.7006
730 2 28.0010 10.3118 47.5193 0.2872
731 2 28.2262 37.7060 28.6515 -0.0443
732 2 1.9219 17.1562 27.3104 1.2038
733 2 0.3162 32.6645 36.9016 1.4351
734 2 29.9916 15.5597 16.3798 0.2370
735 2 23.3951 7.2364 41.0308 0.3112
736 2 40.7043 4.2854 9.7484 0.9655
737 2 22.7161 19.4602 6.5567 -0.8119
738 2 46.8664 16.3172 19.6265 1.0713
739 2 1.0475 4.6697 26.4909 0.0603
740 2 15.0536 14.4918 30.1553 0.9958
741 2 40.5545 45.9619 0.6286 -0.3912
742 2 37.8724 40.2577 43.3829 0.8721
743 2 2.7145 33.1546 16.0375 -1.0272
744 2 2.9925 35.5775 0.5759 1.2778
745 2 12.3426 44.2663 40.3120 -2.2786
746 2 16.1106 9.4191 43.7044 -2.5335
747 2 10.8622 17.5403 6.9548 0.4016
748 2 1.1653 20.1647 42.9928 -0.5149
749 2 18.8230 23.3466 11.5045 -1.4562
750 2 18.6765 27.5525 48.9869 0.0517
751 2 42.5306 10.1676 26.7519 -0.2205
752 2 30.7193 29.8538 36.3973 -0.5292
753 2 22.5700 49.6798 10.3464 0.9218
754 2 47.9525 16.4278 48.6553 0.4547
755 2 38.9120 6.4468 24.7057 -0.4360
756 2 39.7401 9.0308 28.2417 -2.0031
757 2 41.3453 30.8037 32.0678 -0.0969
758 2 13.2074 24.7099 38.1829 -0.8221
759 2 23.3349 41.7374 26.4648 -0.2472
760 2 13.9710 35.2040 39.8948 2.2675
761 2 40.7035 26.9471 33.1513 -0.2023
762 2 22.6180 26.2794 9.9818 2.0598
763 2 19.6717 6.9568 15.8378 1.3369
764 2 20.8232 15.8082 29.4400 -2.1880
765 2 27.7916 17.7176 49.3628 1.4590
766 2 38.0222 4.1061 28.2031 1.3003
767 2 32.1486 15.4681 14.0830 -1.3918
768 2 37.0717 38.0496 49.8218 -0.2733
769 2 45.4179 22.9244 46.2814 -0.0560
770 2 7.9836 14.4907 22.0816 0.6598
771 2 8.4490 47.0641 3.2523 -0.8958
772 2 2.3438 0.0521 48.4096 1.2291
773 2 9.2753 47.5025 15.6053 -0.7431
774 2 45.6546 43.4469 43.9573 1.8938
775 2 48.7814 22.0326 46.9355 1.7504
776 2 44.9234 42.5528 15.2573 -0.3756
777 2 11.1899 29.7078 40.5366 0.5539
778 2 36.8782 44.7190 9.9849 -0.2852
779 2 7.1268 37.1598 20.2468 0.8766
780 2 49.6901 33.0263 11.6146 1.8310
781 2 9.9321 2.7676 45.4246 0.2602
782 2 22.9878 5.6483 14.4194 0.1746
783 2 2.2924 48.2513 49.6515 0.3263
784 2 23.8940 48.3459 12.7986 0.5303
785 2 2.7618 22.6659 31.5044 -1.0304
786 2 41.4325 19.1800 14.4923 -0.0321
787 2 19.2603 32.4195 6.8669 -0.2452
788 2 19.9189 5.2596 12.3283 0.3823
789 2 2.8250 5.6715 47.8126 -0.7071
790 2 1.1213 38.3060 37.3381 0.1012
791 2 2.7666 48.8327 31.0390 0.3721
792 2 36.8713 34.9612 45.3423 -1.4169
793 2 49.3667 31.3169 3.7101 0.6892
794 2 40.4463 16.9489 31.6023 -1.0470
795 2 27.0802 25.5485 25.4846 0.3537
796 2 19.5406 8.5682 33.9014 -0.3243
797 2 33.7528 37.3247 43.7101 -1.3845
798 2 29.5358 13.7800 30.8235 0.6575
799 2 8.3164 30.2163 12.9607 1.3311
800 2 24.4188 17.2506 42.9857 -0.5103
801 2 0.0111 45.3378 41.6723 0.9543
802 2 37.5454 18.3930 38.1034 1.3676
803 2 38.4573 22.6686 29.8710 -0.4020
804 2 16.1820 35.2301 17.1544 -0.1599
805 2 9.8188 35.4653 36.9389 -0.5235
806 2 26.5584 29.9315 44.2587 1.0250
807 2 27.3379 30.2796 9.5969 -2.1410
808 2 15.9181 47.6468 12.1938 2.3580
809 2 4.2014 39.4592 2.3562 -0.4873
810 2 48.8266 15.0533 14.0051 -0.8864
811 2 33.7406 18.0576 16.0686 0.8186
812 2 38.8449 28.6573 47.9426 0.4210