ITEM: TIMESTEP
1
ITEM: NUMBER OF ATOMS
4096
ITEM: BOX BOUNDS pp pp pp
0.0 48.0
0.0 48.0
0.0 48.0
ITEM: ATOMS id type x y z
1 32 -0.082 -0.020 -0.043
2 52 3.039 3.168 2.963
3 51 3.028 3.090 -0.046
4 52 0.010 -0.013 3.026
5 32 3.015 0.050 3.128
6 52 0.123 3.029 -0.020
7 32 -0.035 2.769 3.064
8 52 3.099 0.002 -0.044
9 51 0.132 0.074 5.999
10 52 3.013 2.974 9.060
11 32 3.005 3.096 5.924
12 52 0.046 -0.008 8.957
13 51 3.037 -0.113 9.083
14 52 0.105 2.925 6.190
15 32 -0.120 3.044 9.191
16 52 3.098 0.128 6.092
17 32 -0.048 -0.038 12.034
18 52 3.099 3.205 15.259
19 51 2.879 2.970 11.889
20 52 -0.107 0.023 15.077
21 51 3.114 0.048 15.153
22 52 -0.129 2.998 12.218
23 32 0.069 3.116 14.891
24 52 2.959 -0.040 12.017
25 32 -0.108 -0.142 18.015
26 52 3.054 3.009 20.973
27 32 3.064 3.007 17.976
28 52 0.049 0.043 20.916
29 51 3.005 0.116 20.829
30 52 0.050 3.022 18.097
31 51 0.054 2.912 21.164
32 52 2.932 0.066 18.074
33 51 0.031 0.081 24.074
34 52 2.968 3.037 27.011
35 32 3.021 2.998 23.980
36 52 0.004 -0.109 26.929
37 51 2.854 0.018 26.819
38 52 -0.035 2.893 23.956
39 51 -0.025 3.095 26.970
40 52 3.147 -0.115 24.010
41 51 0.022 0.014 30.006
42 52 2.971 3.019 32.972
43 51 2.982 2.981 29.995
44 52 -0.072 0.103 32.931
45 51 3.076 0.072 33.004
46 52 0.022 3.028 30.014
47 32 0.168 2.960 33.046
48 52 3.045 -0.022 30.071
49 32 0.010 0.066 35.792
50 52 2.894 3.003 39.155
51 51 3.135 2.900 36.023
52 52 0.148 -0.080 38.989
53 32 2.922 -0.036 39.099
54 52 -0.017 3.266 35.895
55 32 0.030 2.969 39.062
56 52 3.172 0.051 36.059
57 51 -0.103 0.148 42.156
58 52 2.991 3.068 44.993
59 51 3.035 3.093 41.948
60 52 0.229 0.085 45.053
61 51 3.073 0.038 45.104
62 52 -0.074 3.221 42.054
63 51 -0.104 2.989 45.031
64 52 3.196 0.003 41.984
65 32 -0.108 5.829 0.063
66 52 3.216 9.020 3.022
67 51 3.055 8.876 -0.055
68 52 0.167 6.120 3.029
69 51 2.984 6.023 2.867
70 52 -0.061 8.881 -0.034
71 51 0.010 9.078 2.939
72 52 2.822 6.061 -0.133
73 32 0.066 6.180 6.082
74 52 3.131 8.993 8.930
75 51 2.905 8.926 6.020
76 52 0.129 6.058 9.123
77 32 2.951 5.962 9.076
78 52 0.010 9.051 6.115
79 32 0.048 9.067 9.116
80 52 2.948 5.919 5.981
81 32 0.058 5.752 11.954
82 52 3.048 8.796 15.107
83 32 3.211 9.025 11.843
84 52 0.098 6.000 15.119
85 51 3.013 5.908 14.989
86 52 0.171 8.996 11.948
87 32 -0.066 9.033 14.962
88 52 3.015 6.086 11.940
89 32 0.208 5.978 17.908
90 52 2.847 8.836 20.789
91 51 2.996 9.196 18.028
92 52 -0.085 5.984 20.948
93 32 3.150 5.859 21.191
94 52 -0.032 8.822 17.862
95 51 -0.018 8.832 20.823
96 52 2.890 6.172 18.003
97 32 0.050 6.082 23.971
98 52 3.098 9.179 27.066
99 32 2.916 8.968 24.039
100 52 0.056 6.080 26.997
101 32 3.051 6.066 27.016
102 52 -0.151 9.158 23.845
103 51 0.024 8.974 27.043
104 52 2.966 6.027 24.154
105 32 -0.111 6.069 30.154
106 52 3.015 8.914 33.049
107 32 2.983 9.082 30.006
108 52 -0.056 5.944 33.076
109 32 3.034 5.956 33.032
110 52 0.069 9.007 29.985
111 32 -0.045 9.103 32.877
112 52 2.960 5.863 30.092
113 51 -0.092 6.010 35.938
114 52 3.144 9.062 38.918
115 32 2.989 8.913 36.090
116 52 0.116 5.915 39.017
117 51 3.035 5.956 39.143
118 52 0.057 8.897 36.011
119 32 -0.145 8.979 39.034
120 52 2.995 5.929 36.000
121 51 0.077 6.058 41.926
122 52 2.977 9.014 44.960
123 32 3.080 9.049 41.870
124 52 0.059 6.078 45.053
125 32 2.986 5.937 45.095
126 52 -0.054 8.986 42.077
127 32 -0.049 8.895 45.035
128 52 2.890 6.097 41.933
129 51 -0.017 11.990 0.026
130 52 3.069 15.052 3.093
131 32 2.871 15.011 -0.022
132 52 0.031 11.874 3.021
133 51 3.041 12.056 2.933
134 52 -0.070 15.181 0.065
135 51 -0.044 14.876 3.085
136 52 3.062 12.160 -0.105
137 32 0.135 12.169 5.940
138 52 3.159 15.129 9.037
139 51 3.003 14.906 5.921
140 52 0.115 12.135 9.118
141 32 2.972 11.842 8.968
142 52 -0.157 14.890 6.074
143 32 -0.083 14.893 8.958
144 52 3.029 11.992 5.996
145 51 0.014 12.057 12.135
146 52 3.209 15.005 14.913
147 51 2.879 14.991 11.768
148 52 -0.138 11.953 14.999
149 51 2.998 12.040 14.842
150 52 0.122 15.031 12.054
151 32 0.110 14.878 14.943
152 52 2.911 12.019 11.922
153 51 -0.059 11.901 17.828
154 52 3.078 14.908 20.993
155 51 2.861 15.123 18.049
156 52 -0.001 11.992 20.997
157 32 2.835 12.099 21.037
158 52 -0.085 14.903 17.962
159 51 0.193 15.076 20.985
160 52 2.932 12.034 17.971
161 32 -0.009 12.035 23.777
162 52 2.922 15.160 26.912
163 32 3.051 15.050 23.859
164 52 0.082 11.809 26.926
165 32 3.099 12.098 26.892
166 52 -0.158 15.060 24.063
167 32 0.154 14.925 26.887
168 52 3.067 11.940 24.010
169 51 -0.035 11.890 30.056
170 52 3.118 15.001 32.824
171 51 3.120 14.947 30.128
172 52 -0.066 12.004 33.031
173 51 3.054 11.979 32.947
174 52 0.100 15.021 30.106
175 51 0.018 15.184 32.932
176 52 3.086 12.087 30.003
177 51 -0.054 11.846 35.859
178 52 3.064 14.909 39.000
179 51 2.792 15.029 35.996
180 52 -0.069 11.911 39.055
181 51 2.853 11.971 39.048
182 52 -0.097 15.002 36.115
183 51 0.086 15.144 38.999
184 52 3.088 12.147 35.977
185 51 -0.015 12.089 42.084
186 52 3.020 14.929 44.891
187 32 3.091 14.852 41.949
188 52 0.228 12.093 44.981
189 51 2.852 11.954 45.141
190 52 -0.057 15.044 42.066
191 32 0.104 14.947 45.002
192 52 3.023 11.964 41.826
193 32 -0.233 18.085 -0.020
194 52 2.900 21.174 2.903
195 32 2.959 21.055 0.179
196 52 -0.056 18.153 3.094
197 32 3.106 18.050 3.025
198 52 -0.045 20.813 0.009
199 32 -0.017 20.957 3.125
200 52 3.134 18.221 -0.049
201 32 -0.046 18.058 5.915
202 52 3.059 21.169 9.022
203 51 3.009 21.078 6.080
204 52 -0.091 18.181 9.019
205 51 3.089 18.128 9.031
206 52 0.131 21.049 6.041
207 32 -0.060 21.067 9.057
208 52 2.912 18.075 6.064
209 51 -0.085 18.163 12.058
210 52 3.017 20.966 14.928
211 32 2.975 20.937 12.083
212 52 0.156 18.253 15.046
213 51 2.960 17.913 15.011
214 52 0.010 20.928 11.819
215 32 0.158 21.110 15.105
216 52 3.085 17.954 11.973
217 32 -0.076 18.214 18.053
218 52 3.028 20.954 20.940
219 32 3.005 20.885 18.057
220 52 0.037 18.191 20.891
221 32 2.857 18.030 21.091
222 52 0.262 21.070 17.888
223 51 0.026 21.051 21.148
224 52 3.019 18.159 18.029
225 32 0.072 17.973 24.120
226 52 3.123 21.008 27.033
227 51 2.917 21.017 24.004
228 52 0.057 18.171 27.109
229 51 3.089 17.990 27.033
230 52 -0.101 20.847 23.841
231 32 -0.108 21.048 26.906
232 52 3.011 18.031 23.999
233 32 0.078 18.067 29.881
234 52 3.038 20.948 33.046
235 51 3.139 21.119 30.042
236 52 0.001 17.988 33.155
237 32 3.086 18.004 33.046
238 52 0.043 20.897 29.970
239 32 -0.046 20.976 33.021
240 52 2.935 18.067 29.869
241 32 0.009 17.899 36.136
242 52 3.077 21.009 39.047
243 32 2.933 21.100 35.921
244 52 -0.079 17.996 39.101
245 32 3.016 18.030 39.072
246 52 -0.055 20.881 35.933
247 51 -0.154 20.896 38.997
248 52 3.061 17.943 36.016
249 51 -0.035 17.893 42.038
250 52 2.814 21.057 45.125
251 32 3.054 20.966 42.269
252 52 0.020 17.985 45.001
253 51 2.954 18.124 44.922
254 52 0.184 20.881 41.821
255 32 0.110 21.055 44.953
256 52 3.138 18.106 42.202
257 32 -0.195 24.280 -0.038
258 52 2.874 26.983 2.870
259 51 2.795 26.933 -0.048
260 52 0.014 23.924 2.960
261 51 3.149 24.041 2.948
262 52 0.044 27.027 -0.035
263 32 0.100 26.799 3.123
264 52 3.029 23.990 0.117
265 51 0.042 23.970 5.891
266 52 3.116 26.963 8.824
267 51 3.012 27.025 6.027
268 52 -0.000 23.958 8.968
269 32 2.968 23.974 8.914
270 52 -0.055 27.033 6.060
271 32 0.006 27.012 8.984
272 52 3.142 24.026 5.793
273 32 -0.057 23.918 11.920
274 52 3.008 26.906 15.081
275 32 2.967 26.934 11.995
276 52 -0.057 24.109 15.017
277 51 2.895 23.958 14.913
278 52 -0.039 27.034 11.895
279 51 0.055 26.941 14.923
280 52 2.964 23.960 11.982
281 51 -0.110 23.992 18.005
282 52 3.063 26.912 20.976
283 51 2.978 27.037 18.151
284 52 -0.041 24.114 20.990
285 51 3.083 24.038 20.896
286 52 -0.007 27.109 17.991
287 32 0.034 27.097 20.897
288 52 2.935 24.078 18.063
289 51 0.172 23.874 24.030
290 52 3.093 26.930 27.054
291 32 2.932 27.101 23.931
292 52 -0.044 24.263 27.072
293 51 2.958 23.803 26.880
294 52 0.073 26.983 23.821
295 51 0.123 26.934 26.813
296 52 2.940 23.881 24.052
297 51 -0.001 23.959 30.089
298 52 2.961 26.833 33.031
299 32 3.026 27.043 30.039
300 52 -0.083 24.049 33.036
301 51 2.990 23.998 33.050
302 52 -0.077 26.949 30.013
303 32 0.006 27.048 33.025
304 52 3.020 23.984 29.967
305 32 0.095 23.885 36.068
306 52 2.779 26.922 38.899
307 51 3.138 26.944 36.143
308 52 -0.072 24.019 39.163
309 32 3.036 23.954 38.971
310 52 -0.092 26.978 35.960
311 32 0.082 27.067 39.071
312 52 2.830 24.105 35.942
313 32 -0.100 24.050 42.039
314 52 2.920 26.961 44.975
315 32 3.011 26.974 42.010
316 52 -0.015 24.099 45.000
317 51 3.009 24.104 44.992
318 52 0.006 27.086 42.064
319 32 -0.087 27.024 44.920
320 52 3.101 23.887 42.137
321 32 0.099 29.948 0.153
322 52 3.003 32.956 2.986
323 32 2.858 32.887 -0.091
324 52 -0.086 30.012 3.087
325 51 2.980 29.917 2.911
326 52 0.027 33.143 0.176
327 51 -0.001 32.908 3.058
328 52 3.001 29.965 0.040
329 51 0.021 30.007 5.786
330 52 2.925 32.974 9.099
331 32 2.941 32.964 5.920
332 52 -0.065 29.984 8.943
333 32 2.847 30.154 8.973
334 52 0.009 32.914 5.957
335 51 0.039 33.001 9.035
336 52 3.051 29.802 6.075
337 51 -0.070 30.013 11.941
338 52 2.947 32.913 15.057
339 51 3.205 32.922 11.983
340 52 -0.018 29.968 15.047
341 32 3.092 30.156 15.078
342 52 -0.092 32.916 12.003
343 32 -0.049 32.936 14.930
344 52 3.015 30.093 12.145
345 51 0.012 30.148 18.003
346 52 2.824 33.075 20.943
347 51 3.079 33.095 18.185
348 52 -0.091 29.845 20.894
349 51 2.921 29.847 20.915
350 52 -0.021 32.892 17.874
351 51 -0.006 32.803 20.886
352 52 2.956 30.023 17.970
353 51 0.086 29.930 23.874
354 52 2.974 32.955 26.989
355 32 3.073 32.867 23.982
356 52 0.088 30.203 26.949
357 51 2.814 29.998 26.877
358 52 0.183 32.951 23.991
359 51 -0.093 33.145 27.037
360 52 3.007 30.102 23.918
361 51 0.233 29.977 29.922
362 52 3.115 32.838 32.965
363 51 3.042 32.978 29.909
364 52 -0.153 30.077 33.217
365 32 3.139 30.064 33.120
366 52 0.099 32.988 29.953
367 32 -0.217 33.054 33.069
368 52 2.885 30.029 29.802
369 32 0.053 29.951 35.836
370 52 3.229 33.138 39.089
371 32 3.004 32.868 35.998
372 52 0.004 29.899 38.980
373 51 2.868 29.911 39.025
374 52 0.001 33.040 35.893
375 51 0.109 33.000 38.841
376 52 2.824 29.997 35.811
377 51 -0.241 29.919 41.849
378 52 3.047 32.907 44.941
379 51 2.975 33.002 41.985
380 52 -0.005 30.191 44.789
381 51 2.827 30.037 44.854
382 52 0.041 32.881 41.943
383 51 0.026 32.935 45.083
384 52 2.960 30.012 41.945
385 32 0.132 36.006 -0.091
386 52 2.947 39.053 3.052
387 32 2.918 38.993 -0.153
388 52 -0.019 36.132 2.898
389 32 2.968 35.915 2.872
390 52 -0.027 39.055 -0.061
391 32 -0.029 39.054 3.218
392 52 3.038 36.036 0.096
393 32 -0.066 35.989 5.890
394 52 3.069 39.113 8.873
395 51 3.131 39.159 5.967
396 52 -0.244 36.027 9.120
397 51 2.881 35.969 8.849
398 52 0.040 38.923 5.948
399 32 0.148 38.949 9.068
400 52 2.978 35.850 5.935
401 51 -0.257 36.035 12.071
402 52 3.098 38.966 14.887
403 32 3.139 38.962 12.077
404 52 -0.072 36.135 14.920
405 32 2.983 36.096 15.024
406 52 0.064 39.076 11.877
407 51 -0.005 39.070 14.999
408 52 2.790 35.887 12.034
409 51 -0.035 36.014 17.871
410 52 2.922 39.068 21.129
411 32 2.802 39.017 17.822
412 52 -0.037 36.119 20.982
413 51 2.993 36.128 20.917
414 52 -0.065 38.971 17.978
415 51 0.021 39.084 20.983
416 52 2.995 36.034 18.091
417 32 -0.162 35.875 23.904
418 52 2.828 39.020 27.221
419 32 3.114 38.948 23.979
420 52 -0.128 35.882 27.193
421 51 3.031 36.160 26.889
422 52 0.033 39.081 24.120
423 51 0.010 39.117 27.096
424 52 3.197 36.126 23.910
425 32 -0.062 36.072 30.004
426 52 3.151 38.888 32.982
427 51 3.032 38.978 30.039
428 52 0.011 35.836 33.117
429 32 2.968 35.991 33.125
430 52 0.094 39.168 29.993
431 32 0.117 39.131 33.031
432 52 3.020 36.053 30.018
433 32 0.241 36.044 35.900
434 52 3.084 39.068 39.091
435 32 2.979 39.068 36.189
436 52 0.161 35.951 39.080
437 32 2.950 36.121 39.030
438 52 0.001 38.949 36.001
439 51 0.117 39.054 38.994
440 52 2.907 36.055 35.981
441 51 -0.063 35.961 42.052
442 52 3.058 39.125 45.130
443 51 3.040 38.858 41.844
444 52 0.019 36.082 44.921
445 32 2.889 35.991 45.244
446 52 -0.121 38.957 41.971
447 51 -0.137 39.118 45.006
448 52 2.924 36.154 41.954
449 51 -0.062 41.855 0.075
450 52 2.890 44.981 2.921
451 51 3.090 45.006 -0.010
452 52 0.004 42.026 2.983
453 51 3.019 41.983 3.221
454 52 -0.054 44.873 0.075
455 32 0.083 44.943 3.047
456 52 2.999 42.062 -0.042
457 51 -0.111 42.028 6.061
458 52 2.972 44.899 8.889
459 51 2.948 45.036 6.303
460 52 -0.229 41.892 9.088
461 32 2.883 42.055 8.988
462 52 0.066 44.978 6.110
463 51 -0.086 44.844 9.090
464 52 3.001 41.932 6.213
465 51 -0.016 42.077 11.882
466 52 3.087 44.962 15.039
467 51 2.998 44.946 11.889
468 52 0.129 42.009 15.039
469 32 3.050 42.037 14.898
470 52 -0.036 45.100 12.177
471 32 0.071 45.053 15.053
472 52 3.078 41.970 11.937
473 51 0.005 42.106 17.966
474 52 2.886 44.977 21.207
475 32 2.956 44.987 17.920
476 52 -0.006 41.975 21.036
477 51 2.944 41.928 20.963
478 52 0.140 45.061 18.188
479 32 -0.036 45.136 21.129
480 52 2.875 41.979 18.030
481 32 -0.105 41.932 23.919
482 52 3.068 45.153 27.137
483 32 2.983 45.009 24.081
484 52 0.123 42.001 27.034
485 51 3.149 42.028 27.065
486 52 0.052 45.151 23.931
487 51 -0.028 44.868 26.975
488 52 2.803 41.864 24.059
489 32 -0.026 42.187 29.967
490 52 3.009 44.926 32.963
491 32 2.947 44.974 29.997
492 52 -0.181 42.203 33.030
493 32 3.012 42.003 32.957
494 52 -0.053 45.186 30.179
495 32 -0.193 44.928 32.963
496 52 2.963 42.278 30.050
497 32 -0.079 41.939 35.895
498 52 3.050 44.918 39.057
499 51 2.873 45.132 36.029
500 52 0.121 41.939 38.916
501 51 2.893 42.026 38.914
502 52 -0.048 44.958 36.019
503 51 -0.148 44.816 38.936
504 52 3.082 42.050 36.159
505 32 0.071 41.956 41.963
506 52 2.945 45.051 45.056
507 51 2.954 44.881 42.079
508 52 -0.001 42.107 44.972
509 32 2.962 42.015 44.904
510 52 -0.014 45.184 42.155
511 51 -0.246 45.077 45.166
512 52 3.092 42.001 42.079
513 32 5.792 -0.136 -0.053
514 52 9.086 2.902 2.872
515 51 9.111 3.036 0.098
516 52 5.948 0.012 2.962
517 51 9.056 -0.057 2.994
518 52 5.933 2.905 0.064
519 51 6.092 2.951 2.828
520 52 9.075 -0.140 -0.087
521 32 5.908 -0.080 6.005
522 52 8.986 2.893 8.990
523 32 8.901 2.933 6.016
524 52 5.958 0.040 8.994
525 32 8.952 0.017 8.958
526 52 5.824 2.858 5.940
527 32 5.911 3.152 9.053
528 52 9.101 0.101 6.047
529 32 6.130 -0.021 12.004
530 52 8.931 2.938 14.979
531 32 8.831 3.014 11.990
532 52 6.052 -0.044 14.975
533 51 8.934 -0.128 14.925
534 52 6.044 3.004 12.002
535 51 5.974 2.991 15.002
536 52 9.072 -0.130 12.055
537 32 5.944 -0.042 17.883
538 52 9.065 2.966 21.059
539 32 8.928 3.054 17.886
540 52 6.105 0.051 20.983
541 51 8.942 -0.031 20.932
542 52 5.885 2.834 18.156
543 32 6.079 2.914 21.054
544 52 9.112 -0.018 17.939
545 32 5.966 -0.017 24.041
546 52 8.864 3.034 27.055
547 51 9.099 3.023 23.834
548 52 6.104 -0.001 26.898
549 51 8.991 0.014 27.091
550 52 5.886 3.092 23.966
551 51 5.936 2.667 26.973
552 52 9.173 0.014 23.938
553 51 6.024 0.012 29.920
554 52 9.060 3.008 33.111
555 51 9.097 3.014 29.920
556 52 5.848 0.168 33.041
557 51 8.960 0.088 32.931
558 52 5.862 3.081 30.044
559 32 5.992 3.106 33.047
560 52 9.041 -0.024 30.039
561 51 6.027 -0.023 35.980
562 52 8.738 3.013 39.002
563 32 9.026 2.812 36.120
564 52 6.093 0.040 39.140
565 51 9.235 0.042 38.900
566 52 6.018 2.862 36.169
567 51 6.114 2.973 39.028
568 52 8.900 -0.101 36.109
569 51 5.994 0.083 41.821
570 52 9.074 2.976 45.019
571 51 9.057 2.973 42.060
572 52 6.169 -0.001 44.895
573 51 8.881 0.036 45.112
574 52 5.780 2.787 42.096
575 32 6.092 3.078 45.021
576 52 8.936 -0.019 42.111
577 32 6.259 5.986 0.080
578 52 9.011 9.001 3.110
579 32 9.027 9.025 0.106
580 52 6.121 6.079 2.862
581 51 9.021 6.196 2.916
582 52 5.678 8.891 0.020
583 51 5.975 9.129 3.188
584 52 8.993 5.910 -0.141
585 32 6.059 6.118 5.942
586 52 8.892 9.032 8.830
587 32 9.077 9.041 5.784
588 52 6.071 5.939 9.018
589 32 8.860 5.879 9.049
590 52 6.015 8.858 5.916
591 32 6.016 8.921 8.956
592 52 8.889 6.117 5.970
593 51 6.024 5.936 12.003
594 52 8.928 8.964 14.888
595 51 9.077 8.935 11.896
596 52 5.789 5.923 14.940
597 32 9.002 6.000 14.857
598 52 5.895 9.154 12.086
599 32 6.099 9.035 15.146
600 52 9.145 6.080 11.891
601 51 5.980 5.980 18.017
602 52 8.998 8.914 20.969
603 51 9.085 9.066 18.111
604 52 6.074 5.873 21.041
605 51 8.983 6.208 20.930
606 52 6.181 9.072 18.219
607 51 5.965 9.030 20.997
608 52 8.967 5.976 18.042
609 51 6.174 6.151 24.079
610 52 9.091 9.101 27.026
611 51 8.926 9.029 24.146
612 52 5.958 5.707 27.003
613 51 8.957 5.903 27.008
614 52 6.246 9.146 23.933
615 51 5.958 8.881 26.889
616 52 9.125 6.045 24.033
617 32 5.982 6.043 29.911
618 52 9.235 8.947 32.949
619 32 8.985 8.891 30.123
620 52 6.140 5.932 33.092
621 32 9.040 5.969 32.943
622 52 5.952 9.061 30.219
623 32 6.057 9.088 32.961
624 52 9.029 5.959 29.957
625 51 6.055 5.896 36.241
626 52 9.063 9.049 38.988
627 51 8.890 9.015 36.044
628 52 6.031 5.890 38.896
629 51 9.054 6.056 38.777
630 52 6.077 8.973 36.022
631 51 6.020 9.032 38.874
632 52 9.112 6.005 36.006
633 32 5.957 6.025 42.259
634 52 8.956 8.955 45.115
635 32 9.079 9.079 42.214
636 52 5.889 6.220 45.064
637 51 9.110 5.908 45.072
638 52 6.028 8.935 41.935
639 32 6.088 9.170 44.900
640 52 8.941 5.996 42.027
641 51 6.073 12.094 -0.024
642 52 8.928 15.034 2.924
643 32 9.028 15.060 -0.034
644 52 5.985 12.045 3.038
645 32 9.155 12.038 2.825
646 52 6.139 15.129 -0.022
647 51 6.104 15.129 2.873
648 52 9.066 11.990 0.142
649 51 6.060 11.809 5.940
650 52 8.911 14.994 9.030
651 51 9.037 14.891 6.012
652 52 5.927 11.953 9.034
653 51 9.051 11.982 9.266
654 52 6.021 15.042 6.056
655 32 5.962 15.146 9.021
656 52 8.964 11.944 6.015
657 32 6.008 11.913 11.954
658 52 8.894 14.903 14.883
659 51 9.170 14.862 12.137
660 52 6.048 12.101 14.949
661 32 9.126 11.954 14.918
662 52 6.082 14.969 12.034
663 51 5.872 15.036 14.944
664 52 8.883 11.934 11.813
665 32 6.066 12.103 17.922
666 52 9.013 14.995 21.045
667 32 9.145 14.951 18.064
668 52 6.009 11.812 20.929
669 32 9.057 11.910 20.892
670 52 5.960 15.130 18.017
671 32 6.034 15.124 21.151
672 52 9.054 11.967 17.959
673 32 5.805 12.019 24.056
674 52 8.761 15.084 27.336
675 51 8.850 15.078 24.074
676 52 5.990 11.886 27.042
677 51 8.987 12.123 27.045
678 52 6.053 15.020 24.024
679 51 6.012 14.872 27.066
680 52 9.019 12.100 23.919
681 32 5.920 11.956 29.894
682 52 8.910 15.089 32.939
683 32 9.004 15.134 30.077
684 52 5.860 12.094 32.742
685 51 9.013 11.876 32.996
686 52 5.903 14.833 29.993
687 32 6.111 14.994 32.931
688 52 8.852 12.013 29.937
689 32 6.130 11.832 35.821
690 52 8.989 15.236 39.167
691 32 9.045 15.177 36.073
692 52 6.023 11.936 38.884
693 51 9.006 12.016 39.052
694 52 6.095 15.023 36.067
695 32 5.916 14.892 38.896
696 52 9.110 11.943 36.064
697 32 5.893 12.131 42.018
698 52 8.935 15.105 44.983
699 51 9.103 15.079 41.918
700 52 6.036 11.987 44.921
701 51 9.070 11.928 44.986
702 52 5.847 15.026 42.012
703 32 6.145 14.998 45.039
704 52 8.972 11.994 41.997
705 32 6.258 17.930 -0.034
706 52 8.980 20.938 2.978
707 32 8.904 20.940 0.067
708 52 6.087 17.935 3.066
709 32 9.057 18.089 3.141
710 52 6.048 20.953 -0.046
711 51 5.819 20.754 3.020
712 52 8.921 18.040 0.051
713 51 6.139 18.170 5.995
714 52 8.904 20.957 8.947
715 32 9.194 20.935 6.077
716 52 6.099 18.092 9.072
717 51 9.051 17.976 8.896
718 52 5.941 21.114 5.872
719 51 5.912 21.119 9.086
720 52 9.015 18.077 5.879
721 51 6.029 18.022 11.933
722 52 8.888 20.949 14.928
723 32 8.967 21.076 12.151
724 52 5.908 17.968 15.045
725 51 9.141 18.025 14.828
726 52 5.947 20.965 11.878
727 51 5.955 20.833 14.880
728 52 8.985 18.055 11.835
729 51 5.887 18.059 17.968
730 52 8.958 20.921 21.117
731 32 8.875 21.115 17.914
732 52 6.031 18.019 20.868
733 32 8.872 17.966 21.100
734 52 5.797 21.012 17.925
735 32 5.842 20.915 20.785
736 52 9.064 17.944 17.896
737 32 5.982 18.024 24.058
738 52 8.913 20.994 27.013
739 32 9.029 20.976 23.942
740 52 6.156 17.998 26.963
741 32 8.875 17.931 27.005
742 52 5.994 20.958 24.146
743 32 5.934 21.102 26.929
744 52 8.987 17.919 23.840
745 51 5.841 17.841 30.004
746 52 8.858 20.856 33.084
747 32 9.085 21.051 29.836
748 52 5.997 17.810 32.955
749 32 9.029 17.710 32.855
750 52 6.077 20.990 30.016
751 51 6.037 20.899 32.966
752 52 9.039 18.158 30.111
753 51 6.061 18.089 36.054
754 52 9.102 20.881 38.999
755 32 9.158 21.090 35.921
756 52 5.900 17.939 39.079
757 51 8.957 18.127 39.221
758 52 6.049 20.901 35.917
759 32 5.857 21.162 39.017
760 52 9.038 17.970 35.931
761 51 5.892 18.131 42.030
762 52 8.885 21.016 45.092
763 51 9.016 21.117 41.901
764 52 5.922 17.996 44.837
765 32 9.028 17.952 44.989
766 52 6.128 21.065 42.052
767 51 5.912 21.129 45.108
768 52 8.953 18.102 41.859
769 32 6.004 24.047 0.051
770 52 9.048 26.930 3.027
771 32 9.029 26.969 -0.244
772 52 5.945 23.921 2.929
773 51 9.099 24.216 3.180
774 52 6.107 26.921 -0.113
775 51 5.984 27.055 2.995
776 52 8.937 24.133 -0.061
777 51 5.873 24.127 6.133
778 52 8.800 26.999 8.862
779 32 9.014 26.935 5.925
780 52 6.053 23.848 9.021
781 51 8.863 24.064 9.102
782 52 5.983 26.980 6.154
783 51 6.089 27.053 9.160
784 52 8.893 23.872 6.113
785 51 5.996 23.961 11.786
786 52 8.703 26.884 14.892
787 32 9.055 26.817 11.982
788 52 6.112 24.202 14.875
789 51 9.110 24.010 15.163
790 52 6.096 26.928 11.928
791 51 6.062 27.044 15.037
792 52 9.083 23.979 12.044
793 32 5.905 23.965 18.109
794 52 9.006 27.122 20.929
795 51 9.000 27.103 18.018
796 52 5.998 24.250 21.023
797 51 8.965 23.918 20.945
798 52 5.972 27.119 18.168
799 32 5.961 26.943 20.957
800 52 8.975 23.771 18.038
801 51 6.122 23.950 23.922
802 52 8.907 27.034 26.905
803 51 9.175 27.057 23.987
804 52 5.862 24.095 26.997
805 32 8.954 23.895 26.933
806 52 6.170 27.026 24.091
807 32 6.013 27.054 27.161
808 52 8.877 23.948 24.085
809 32 5.897 24.000 30.182
810 52 9.093 27.062 33.120
811 51 9.057 26.973 29.922
812 52 5.946 23.987 32.873
813 51 9.003 23.899 32.898
814 52 5.891 26.993 30.176
815 51 5.799 27.121 32.992
816 52 8.952 23.993 29.963
817 51 6.070 23.925 35.752
818 52 8.982 27.052 39.048
819 51 9.022 26.883 35.978
820 52 5.893 23.964 38.948
821 32 8.938 23.952 38.999
822 52 6.045 27.005 35.854
823 51 5.948 27.000 38.900
824 52 8.958 23.668 36.097
825 32 5.814 23.802 42.090
826 52 8.997 26.958 45.131
827 51 8.894 26.980 41.926
828 52 5.888 23.930 45.001
829 32 9.139 23.969 45.142
830 52 5.852 26.960 41.921
831 51 5.882 27.095 44.800
832 52 9.049 24.014 41.961
833 51 6.040 30.116 0.033
834 52 9.051 32.761 2.962
835 32 8.878 32.973 0.111
836 52 5.849 30.201 2.795
837 32 8.929 30.027 3.063
838 52 5.974 32.863 -0.050
839 32 6.117 33.085 3.046
840 52 9.034 30.030 0.071
841 32 5.959 29.973 5.946
842 52 8.954 32.883 8.917
843 32 8.772 32.910 6.126
844 52 6.025 29.883 8.954
845 51 9.140 29.883 9.181
846 52 5.909 33.174 6.002
847 32 5.764 33.026 9.116
848 52 8.982 30.006 5.944
849 51 6.070 30.105 12.037
850 52 8.932 32.981 15.029
851 32 8.849 32.843 11.944
852 52 6.120 30.053 15.071
853 32 8.908 30.054 14.975
854 52 6.010 32.942 11.931
855 32 5.964 33.072 15.046
856 52 8.945 29.918 11.860
857 51 6.001 30.125 17.989
858 52 9.104 32.889 20.960
859 32 8.913 33.213 18.032
860 52 5.930 29.906 20.834
861 51 8.943 30.129 20.996
862 52 5.989 32.918 17.986
863 51 5.935 33.087 20.999
864 52 8.970 30.118 17.876
865 51 5.998 29.981 23.922
866 52 8.853 32.855 26.997
867 32 9.086 32.883 23.799
868 52 5.907 30.069 26.958
869 32 8.952 30.003 26.922
870 52 6.065 32.963 24.073
871 32 5.961 32.999 26.920
872 52 8.964 30.106 24.170
873 51 5.903 30.001 29.910
874 52 8.930 32.939 32.941
875 51 9.036 33.072 29.994
876 52 5.768 30.062 32.989
877 51 9.085 30.061 33.073
878 52 6.012 32.991 30.093
879 51 6.056 33.056 32.908
880 52 8.971 30.023 30.048
881 32 5.933 30.114 35.998
882 52 9.070 32.988 38.884
883 51 8.824 32.885 35.934
884 52 6.339 30.042 39.009
885 51 8.804 30.126 38.964
886 52 6.070 32.942 36.003
887 32 5.990 33.009 38.779
888 52 9.020 30.040 35.926
889 32 6.068 30.117 41.999
890 52 8.910 32.938 44.860
891 51 9.081 33.006 41.913
892 52 5.964 30.025 44.884
893 32 9.169 30.078 45.041
894 52 6.066 33.053 41.804
895 51 6.027 33.039 45.142
896 52 9.129 30.162 42.014
897 51 6.098 36.067 0.135
898 52 8.942 38.832 2.979
899 51 8.771 39.030 -0.011
900 52 5.889 35.841 3.070
901 51 9.081 36.076 2.911
902 52 5.898 39.020 -0.044
903 51 5.964 39.092 3.002
904 52 8.944 36.331 -0.003
905 32 5.926 35.946 5.951
906 52 9.223 39.031 8.988
907 32 9.056 39.076 6.145
908 52 5.939 35.954 9.142
909 51 8.995 36.098 9.003
910 52 5.892 39.083 5.997
911 32 5.983 39.074 9.108
912 52 8.894 35.822 5.923
913 51 5.992 36.174 11.980
914 52 8.974 39.035 14.813
915 51 9.156 38.928 11.998
916 52 6.169 35.848 14.891
917 32 9.068 35.966 14.970
918 52 6.017 38.995 11.947
919 32 6.108 39.031 15.019
920 52 9.143 36.088 11.921
921 51 6.014 36.121 18.109
922 52 9.004 39.134 21.128
923 32 8.972 38.982 17.906
924 52 5.809 36.144 20.920
925 32 9.013 35.876 20.960
926 52 5.931 39.023 17.915
927 51 5.883 38.897 21.009
928 52 9.222 36.053 17.983
929 51 6.088 35.955 24.141
930 52 9.189 39.092 27.154
931 51 9.054 38.972 24.002
932 52 6.037 35.935 26.946
933 32 8.981 36.266 27.069
934 52 6.096 38.898 24.002
935 32 6.020 38.971 27.125
936 52 8.944 35.992 23.945
937 51 6.008 36.184 29.949
938 52 9.200 38.881 32.769
939 32 8.976 39.198 30.008
940 52 5.991 35.875 33.001
941 51 8.937 35.946 32.885
942 52 6.010 39.064 30.160
943 32 6.026 39.101 32.976
944 52 9.109 35.945 29.996
945 32 6.085 36.077 35.926
946 52 8.838 39.041 38.904
947 51 9.026 38.935 35.898
948 52 5.933 35.919 39.081
949 32 8.948 36.085 39.092
950 52 5.998 39.158 36.101
951 51 6.145 38.919 39.070
952 52 9.109 36.117 36.053
953 51 6.046 35.716 41.884
954 52 8.998 38.902 44.889
955 51 8.961 39.002 41.927
956 52 6.053 35.926 44.996
957 51 9.056 35.866 45.179
958 52 5.953 39.121 41.865
959 51 6.096 38.879 45.022
960 52 9.098 36.017 42.147
961 32 5.934 42.043 0.000
962 52 8.964 45.050 2.937
963 32 9.116 45.093 -0.022
964 52 5.900 41.994 3.085
965 51 8.968 42.089 3.098
966 52 5.857 45.045 -0.067
967 51 5.874 44.977 2.923
968 52 8.925 42.029 -0.131
969 51 5.904 42.084 6.137
970 52 9.260 45.170 8.827
971 32 9.057 45.029 5.991
972 52 6.128 42.055 8.971
973 32 9.063 41.903 8.865
974 52 6.114 45.169 6.078
975 51 5.923 45.055 9.160
976 52 8.917 41.964 6.070
977 51 5.993 41.906 11.924
978 52 8.904 45.094 15.070
979 51 8.970 44.903 11.819
980 52 6.194 41.979 15.133
981 51 9.021 42.073 14.957
982 52 6.237 44.976 11.906
983 51 5.949 45.014 15.084
984 52 9.013 41.869 12.094
985 51 6.101 42.032 17.885
986 52 9.173 45.125 21.002
987 32 9.135 44.959 17.779
988 52 6.203 42.026 20.956
989 51 8.816 41.986 21.199
990 52 5.947 44.976 17.933
991 32 6.073 45.210 21.001
992 52 8.932 42.031 17.865
993 51 6.202 42.076 23.907
994 52 9.025 44.766 26.963
995 32 9.061 45.077 24.206
996 52 5.897 42.063 27.076
997 32 9.057 41.945 26.850
998 52 5.866 45.054 23.936
999 32 6.063 44.932 26.831
1000 52 8.926 42.025 24.044
1001 32 5.895 41.802 30.061
1002 52 8.953 44.863 33.076
1003 51 9.062 45.081 30.015
1004 52 5.943 42.188 33.113
1005 51 8.878 41.835 32.968
1006 52 6.051 45.003 29.980
1007 32 6.156 45.104 33.060
1008 52 9.002 41.943 29.916
1009 32 5.847 41.995 35.972
1010 52 8.964 44.972 39.027
1011 32 8.991 45.103 36.053
1012 52 5.952 41.912 38.885
1013 51 8.929 42.016 39.088
1014 52 6.021 45.017 36.014
1015 51 6.180 44.885 38.980
1016 52 8.951 42.121 36.111
1017 32 6.064 42.220 41.993
1018 52 9.038 44.944 44.920
1019 51 8.895 44.946 41.868
1020 52 6.149 41.948 45.185
1021 51 8.922 41.982 44.967
1022 52 5.889 45.113 41.773
1023 51 6.020 44.937 45.002
1024 52 9.110 41.924 42.196
1025 32 11.929 -0.090 -0.015
1026 52 14.978 3.142 2.922
1027 32 14.873 2.959 0.188
1028 52 12.021 0.031 2.998
1029 51 15.081 -0.013 3.179
1030 52 11.944 2.865 -0.144
1031 32 11.973 3.016 2.954
1032 52 15.043 0.018 -0.004
1033 51 12.068 0.015 5.975
1034 52 15.043 2.883 8.826
1035 51 15.129 2.949 5.916
1036 52 11.999 -0.048 9.066
1037 32 14.813 0.027 8.980
1038 52 11.875 2.837 6.104
1039 32 12.021 2.954 8.870
1040 52 14.851 -0.172 6.031
1041 51 11.945 -0.075 12.066
1042 52 15.018 2.869 14.919
1043 51 15.067 3.178 12.149
1044 52 11.937 -0.019 14.762
1045 32 15.088 -0.012 15.002
1046 52 12.013 2.899 12.094
1047 51 11.950 2.881 14.972
1048 52 14.938 -0.075 11.951
1049 32 12.117 -0.078 18.186
1050 52 14.966 3.044 20.903
1051 32 14.922 3.004 18.010
1052 52 11.965 -0.021 20.952
1053 51 14.957 -0.007 20.955
1054 52 11.962 3.121 18.085
1055 32 12.122 3.069 21.213
1056 52 15.177 0.170 18.016
1057 32 11.891 -0.211 24.055
1058 52 15.020 3.036 26.997
1059 32 15.029 2.918 23.866
1060 52 11.972 0.011 27.226
1061 32 15.222 0.080 26.918
1062 52 12.005 3.305 23.975
1063 51 11.901 2.845 26.946
1064 52 15.128 0.163 24.106
1065 51 12.110 0.087 30.041
1066 52 14.965 2.834 33.055
1067 51 14.837 2.839 30.081
1068 52 11.874 0.021 32.822
1069 51 14.948 -0.032 32.836
1070 52 11.935 3.151 29.846
1071 32 12.035 3.098 33.127
1072 52 14.930 -0.029 30.064
1073 51 11.984 0.115 36.009
1074 52 14.963 2.859 39.057
1075 32 15.026 2.886 36.244
1076 52 12.037 0.010 38.867
1077 32 15.016 0.006 39.103
1078 52 11.959 2.790 36.100
1079 32 11.963 3.021 39.033
1080 52 15.012 0.105 36.159
1081 51 12.083 -0.065 42.037
1082 52 15.086 3.133 45.038
1083 32 15.029 3.073 42.110
1084 52 12.251 -0.028 44.914
1085 32 15.186 -0.057 44.908
1086 52 11.890 3.036 42.216
1087 51 12.043 3.055 45.094
1088 52 15.249 -0.023 42.138
1089 32 12.103 6.144 0.029
1090 52 14.898 8.961 2.920
1091 51 14.781 9.049 -0.072
1092 52 12.062 5.987 3.036
1093 32 15.022 5.954 2.822
1094 52 11.877 9.033 -0.163
1095 51 11.842 8.999 2.975
1096 52 15.050 5.967 -0.118
1097 32 12.019 6.111 5.878
1098 52 14.857 8.995 9.047
1099 51 15.082 9.187 6.110
1100 52 11.900 5.833 8.973
1101 32 15.073 6.251 8.936
1102 52 12.009 9.207 5.933
1103 32 12.026 9.012 8.971
1104 52 15.037 5.955 5.998
1105 32 12.127 6.086 12.228
1106 52 15.197 8.937 14.789
1107 32 15.022 8.921 12.186
1108 52 12.255 6.061 14.933
1109 32 14.853 5.752 14.899
1110 52 11.911 8.979 12.117
1111 51 11.959 8.969 14.878
1112 52 15.032 5.989 11.983
1113 51 11.872 6.184 18.074
1114 52 14.983 9.124 21.108
1115 51 15.061 9.176 17.904
1116 52 12.051 6.033 20.999
1117 51 15.020 5.824 21.151