ITEM: TIMESTEP
0
ITEM: NUMBER OF ATOMS
384
ITEM: BOX BOUNDS pp pp pp
0.0 29.060000
0.0 17.623098
0.0 16.700000
ITEM: ATOMS id type x y z q_tetra
1 8 1.8936 3.3467 1.9247 0.9596
2 8 2.4569 1.9443 4.7924 0.9000
3 8 1.8276 3.2979 5.6120 1.0000
4 8 2.6463 2.0036 8.3748 1.0000
5 8 1.9507 3.3001 9.1738 0.9363
6 8 2.7571 1.9110 12.1844 0.9893
7 8 1.8919 3.2075 12.8890 1.0000
8 8 2.5908 1.9692 15.8451 1.0000
9 8 4.2209 7.1762 1.9288 1.0000
10 8 4.8869 6.0067 4.6277 0.9586
11 8 4.1695 7.2314 5.7453 0.9997
12 8 4.8662 5.9161 8.3340 1.0000
13 8 4.0615 7.0919 9.3041 0.9847
14 8 4.7381 5.9589 12.0871 0.9779
15 8 4.1225 7.1919 12.9696 0.9976
16 8 4.9020 5.8295 15.7070 0.9296
17 8 6.5124 11.2023 1.9922 1.0000
18 8 7.0667 9.7001 4.7279 0.9362
19 8 6.4342 11.0254 5.6825 1.0000
20 8 6.9903 9.7168 8.4002 0.9318
21 8 6.4107 11.0394 9.3358 1.0000
22 8 7.1851 9.7747 12.0925 1.0000
23 8 6.3217 11.0321 13.0325 1.0000
24 8 7.2436 9.8186 15.7970 1.0000
25 8 8.4661 14.9328 1.9975 1.0000
26 8 9.2236 13.7333 4.6363 1.0000
27 8 8.6084 14.9689 5.5058 1.0000
28 8 9.3588 13.7504 8.3938 0.9738
29 8 8.6212 14.9536 9.3286 0.9577
30 8 9.4253 13.8614 12.0154 0.9593
31 8 8.5178 15.0027 12.9890 0.9426
32 8 9.4489 13.7895 15.6947 1.0000
33 8 6.3912 3.2813 2.0606 1.0000
34 8 7.0670 1.9351 4.7013 1.0000
35 8 6.3600 3.2748 5.7546 0.9506
36 8 7.0683 1.8884 8.4709 0.9925
37 8 6.3218 3.2408 9.2775 0.9101
38 8 7.1768 1.9313 12.1820 0.9781
39 8 6.3301 3.2722 12.9144 0.9564
40 8 6.9562 2.0032 15.6218 1.0000
41 8 8.6647 7.1938 2.1116 1.0000
42 8 9.3033 6.0309 4.5747 1.0000
43 8 8.7246 7.1691 5.5698 1.0000
44 8 9.4432 5.9109 8.4528 0.9828
45 8 8.5696 7.2630 9.2840 1.0000
46 8 9.4421 5.9882 12.0609 1.0000
47 8 8.7567 7.0682 13.0268 1.0000
48 8 9.3781 5.7595 15.6489 0.9756
49 8 10.8237 11.1468 1.9063 1.0000
50 8 11.6717 9.8519 4.4962 0.9810
51 8 10.9799 11.0481 5.7181 1.0000
52 8 11.7191 9.8104 8.4431 0.9328
53 8 10.9163 11.0977 9.2510 1.0000
54 8 11.5153 9.8082 11.9974 1.0000
55 8 10.9709 10.9829 12.9821 0.8569
56 8 11.7237 9.7996 15.7328 0.9978
57 8 13.1827 15.0329 2.0626 0.9490
58 8 13.8083 13.6392 4.7168 1.0000
59 8 13.0560 14.9920 5.5177 1.0000
60 8 13.9371 13.7959 8.2272 0.9583
61 8 12.9885 14.9760 9.2401 1.0000
62 8 13.9649 13.6328 11.9471 1.0000
63 8 13.0310 15.0107 12.9358 1.0000
64 8 13.8121 13.8432 15.6245 0.9979
65 8 10.8727 3.2251 1.9157 0.9662
66 8 11.7509 1.9584 4.6189 0.9968
67 8 10.9590 3.4245 5.5119 0.9975
68 8 11.6323 1.9305 8.4563 1.0000
69 8 10.7803 3.4065 9.2440 0.9671
70 8 11.6571 2.0386 12.0922 1.0000
71 8 10.7841 3.2924 13.0181 0.9406
72 8 11.6408 1.9318 15.7162 0.9329
73 8 13.1661 7.0553 1.7624 1.0000
74 8 13.8445 5.9600 4.5974 0.9938
75 8 13.2265 7.2450 5.7549 1.0000
76 8 13.9194 5.9307 8.1962 0.9792
77 8 13.0882 7.2654 9.2540 1.0000
78 8 13.8194 5.9366 12.0308 0.9084
79 8 13.1778 7.2039 12.9819 0.9991
80 8 13.8176 5.9495 15.6783 1.0000
81 8 15.2795 11.0582 1.9090 0.9171
82 8 16.0023 9.8290 4.7904 1.0000
83 8 15.3294 11.0336 5.4253 0.9255
84 8 16.1615 9.8825 8.3579 1.0000
85 8 15.2680 11.1513 9.2452 1.0000
86 8 16.1168 9.8848 12.0092 1.0000
87 8 15.2895 11.1004 12.9271 0.9644
88 8 16.3329 9.7311 15.7591 0.9641
89 8 17.6072 15.1441 1.8043 0.9786
90 8 18.1964 13.7532 4.7170 0.9916
91 8 17.6262 15.0416 5.5690 1.0000
92 8 18.5284 13.7041 8.2658 1.0000
93 8 17.6489 14.9715 9.3624 1.0000
94 8 18.3556 13.8272 12.0194 0.9911
95 8 17.5340 14.9243 13.0067 1.0000
96 8 18.3725 13.8115 15.7584 0.9816
97 8 15.2755 3.2633 1.8528 1.0000
98 8 16.1347 2.0083 4.6632 0.9459
99 8 15.3564 3.3116 5.7048 0.9848
100 8 16.2042 2.0269 8.2779 0.9713
101 8 15.3267 3.1722 9.3612 0.9530
102 8 16.2166 2.0393 11.9887 0.9976
103 8 15.3662 3.3754 12.8086 1.0000
104 8 16.1830 1.9303 15.6968 1.0000
105 8 17.5463 7.3247 1.9907 1.0000
106 8 18.4409 5.8656 4.5748 0.9938
107 8 17.6930 7.2495 5.6002 1.0000
108 8 18.3132 5.8253 8.3519 0.9974
109 8 17.5455 7.2407 9.3531 0.9210
110 8 18.4566 5.8434 12.0148 1.0000
111 8 17.7170 7.2580 12.9815 0.9500
112 8 18.4958 5.8458 15.8298 0.9568
113 8 20.1147 11.1275 1.9036 1.0000
114 8 20.6738 9.9000 4.7253 1.0000
115 8 19.7240 11.0514 5.4721 0.9981
116 8 20.7244 9.8618 8.4092 1.0000
117 8 19.9698 11.2948 9.2450 0.9819
118 8 20.6572 9.8304 12.0090 1.0000
119 8 19.8356 11.1733 12.9629 1.0000
120 8 20.5613 9.9550 15.7800 0.8916
121 8 22.0341 14.9907 1.8951 0.9771
122 8 23.0068 13.8031 4.5562 0.9765
123 8 22.0230 15.1158 5.5934 1.0000
124 8 22.9185 13.9108 8.3879 0.9726
125 8 22.1637 15.0431 9.2028 1.0000
126 8 22.8786 13.6871 12.0143 0.9838
127 8 22.3422 15.0586 12.9937 0.9855
128 8 22.8955 13.7060 15.8849 1.0000
129 1 1.2109 3.1285 2.5840 0.9311
130 1 2.2651 2.4564 1.8574 0.9430
131 1 2.3674 2.7754 4.0975 1.0000
132 1 2.4900 1.0599 4.3243 0.9794
133 1 1.0208 2.6814 5.5673 0.9561
134 1 1.5890 4.0819 5.1545 1.0000
135 1 3.4165 2.0951 8.6707 1.0000
136 1 2.3861 1.0204 8.0728 1.0000
137 1 2.5531 3.1438 10.0016 0.9934
138 1 2.1378 2.5856 8.4016 0.9468
139 1 2.6350 0.9542 11.9312 0.9939
140 1 1.8580 2.1624 11.4880 1.0000
141 1 1.0011 3.7836 13.4647 1.0000
142 1 2.4617 3.7097 13.5337 0.9644
143 1 1.7311 1.7921 15.8576 0.9260
144 1 3.0607 1.2180 15.4191 0.9522
145 1 4.4079 6.3978 2.3751 1.0000
146 1 4.8415 7.7555 2.2063 0.9887
147 1 4.5145 6.7827 5.0410 0.9523
148 1 5.7678 5.9683 4.4630 0.9901
149 1 3.2545 7.9274 5.8266 1.0000
150 1 4.8290 7.2358 6.4546 0.9865
151 1 4.1754 5.7258 9.0741 1.0000
152 1 5.2545 6.8679 8.5356 0.9558
153 1 4.0020 8.0515 9.3750 1.0000
154 1 4.3779 7.0914 8.2805 0.9736
155 1 4.8261 5.1343 11.4868 1.0000
156 1 4.2516 6.6357 11.5450 0.9372
157 1 4.9670 7.3498 13.6342 0.9360
158 1 4.4388 6.4715 12.4292 1.0000
159 1 5.3698 6.8283 15.5386 1.0000
160 1 5.6880 5.2202 16.0352 0.9634
161 1 6.1962 11.9415 1.8505 1.0000
162 1 5.9276 10.8929 2.8909 0.9322
163 1 7.7262 9.9047 3.7315 0.9135
164 1 6.5942 8.8692 4.7188 0.9198
165 1 5.2851 11.2116 5.8597 0.9815
166 1 6.6449 12.0784 5.5989 1.0000
167 1 6.3495 9.5073 7.7604 1.0000
168 1 6.7582 10.6123 8.7513 1.0000
169 1 5.6466 11.3850 8.6016 1.0000
170 1 6.0517 10.2278 9.6077 1.0000
171 1 6.3510 10.1813 12.5654 0.9990
172 1 7.7278 10.5382 11.7525 0.9973
173 1 7.1771 10.3952 13.1467 1.0000
174 1 5.5602 10.5690 12.9852 1.0000
175 1 7.3555 9.0220 16.1653 0.9558
176 1 7.1790 9.6415 14.7699 1.0000
177 1 9.3061 14.2841 1.8621 1.0000
178 1 8.4041 15.2724 0.8089 0.9288
179 1 9.2038 14.4677 3.9486 1.0000
180 1 8.5282 13.4039 4.8718 1.0000
181 1 9.4595 15.3217 5.2695 1.0000
182 1 8.5477 14.0177 5.3214 1.0000
183 1 9.3838 13.1491 7.5846 0.9743
184 1 8.5781 13.4940 8.8575 0.9459
185 1 7.7735 15.0580 8.8548 0.9907
186 1 9.0307 14.0667 9.0389 0.9853
187 1 9.7375 12.8153 12.5539 0.9364
188 1 10.0510 14.2849 12.3700 0.9154
189 1 7.7444 14.8185 12.5947 0.9244
190 1 9.2799 14.8820 12.3289 1.0000
191 1 9.3433 13.7576 16.8727 0.9724
192 1 8.8245 12.9958 15.4996 0.9157
193 1 7.3902 3.8145 2.1793 1.0000
194 1 6.7428 2.4689 1.4838 0.9667
195 1 6.4068 2.7743 4.4790 1.0000
196 1 8.0096 2.5617 4.7008 0.9646
197 1 7.0520 3.8619 5.0423 1.0000
198 1 6.4919 3.7639 6.3606 1.0000
199 1 7.2828 1.3760 9.1505 0.9937
200 1 6.1473 1.8041 8.2966 0.9802
201 1 6.4877 2.2881 9.7116 0.9404
202 1 6.8427 3.2090 8.4453 1.0000
203 1 6.1799 1.8560 11.6118 0.9710
204 1 7.0602 1.7253 12.9193 1.0000
205 1 5.7692 3.9922 13.4428 1.0000
206 1 6.9400 2.9194 13.6928 0.9755
207 1 7.2635 2.3453 16.7748 0.9630
208 1 7.8777 2.2676 15.2537 1.0000
209 1 8.5439 8.0239 1.6095 0.9967
210 1 9.2559 6.7433 1.6332 0.9248
211 1 9.5419 6.9055 4.4533 1.0000
212 1 9.9556 5.8553 5.6017 0.9240
213 1 8.8171 6.2835 6.0778 0.9679
214 1 7.8290 7.5291 6.0486 1.0000
215 1 9.7986 5.8299 7.4855 1.0000
216 1 8.8528 5.1460 8.5881 1.0000
217 1 9.5688 7.2636 9.8074 0.9468
218 1 8.8938 6.9536 8.6148 1.0000
219 1 8.9531 5.1240 12.3925 1.0000
220 1 8.6482 6.5910 12.0668 0.9596
221 1 7.8018 6.8540 13.3460 0.9992
222 1 8.7921 7.8308 13.5606 0.9925
223 1 10.0844 5.2555 15.8239 0.9538
224 1 9.0921 5.7927 16.6414 1.0000
225 1 10.6858 12.1051 1.8590 1.0000
226 1 10.0751 10.7999 2.3501 1.0000
227 1 12.3669 9.9150 5.3053 0.9911
228 1 11.5924 10.7660 4.2259 0.9377
229 1 10.0836 10.3951 5.6897 0.9377
230 1 11.4742 10.5327 4.9079 0.9424
231 1 11.5522 10.5325 7.9779 1.0000
232 1 12.6541 9.8565 8.8517 1.0000
233 1 11.7130 10.8843 9.0704 1.0000
234 1 10.9092 12.0245 9.6054 1.0000
235 1 11.0755 9.1876 11.5327 0.9431
236 1 11.6337 9.5115 12.9966 0.9337
237 1 10.4668 10.6499 13.8832 0.9928
238 1 10.4850 10.7658 12.1512 1.0000
239 1 12.5636 9.5825 15.6350 1.0000
240 1 11.1220 9.0087 15.3363 1.0000
241 1 12.9662 15.4107 0.9957 0.9860
242 1 13.3184 15.6668 2.6181 1.0000
243 1 13.8819 14.4788 5.4413 1.0000
244 1 14.4611 13.8058 3.9020 1.0000
245 1 12.9059 14.9874 4.6741 1.0000
246 1 13.4625 14.3531 5.6790 0.9755
247 1 13.8330 12.8862 8.8292 0.9915
248 1 13.0286 13.5376 7.6648 1.0000
249 1 13.6497 14.2415 8.8991 1.0000
250 1 12.7481 14.7005 10.3338 0.9843
251 1 14.0463 13.2406 12.7355 0.9017
252 1 14.6640 13.4577 11.4264 0.9738
253 1 13.1740 14.2586 12.5045 1.0000
254 1 13.9193 15.2926 13.2071 0.9978
255 1 13.0221 14.2023 16.0889 1.0000
256 1 13.9051 13.9617 14.9076 1.0000
257 1 10.6608 3.5525 2.8176 0.9985
258 1 10.8976 4.0879 1.4081 0.9451
259 1 12.5800 1.7870 5.1522 1.0000
260 1 11.0673 1.1564 5.0585 1.0000
261 1 11.7690 3.5455 5.8140 1.0000
262 1 11.0594 2.4260 5.4384 1.0000
263 1 12.5761 1.5453 8.4012 1.0000
264 1 11.7421 2.5867 9.1708 1.0000
265 1 10.4138 4.0282 9.7080 0.9797
266 1 11.5323 2.9101 9.7462 1.0000
267 1 10.9332 2.7296 11.7654 0.9229
268 1 10.9771 1.2724 12.1889 1.0000
269 1 10.8395 4.2410 12.4643 0.9243
270 1 11.8286 3.1395 12.8218 1.0000
271 1 12.4997 2.1440 16.1196 0.9981
272 1 11.2110 2.9310 15.7881 0.9112
273 1 13.9038 7.6666 2.3163 0.9769
274 1 12.3820 7.6609 2.4645 1.0000
275 1 14.3861 5.1850 4.8375 0.9628
276 1 12.9081 5.5329 4.6333 0.9994
277 1 12.9289 8.0183 6.1454 1.0000
278 1 14.1594 7.1683 5.3837 0.9363
279 1 14.5904 5.5800 9.0075 1.0000
280 1 13.1511 5.2610 8.3027 1.0000
281 1 12.5458 7.1796 8.4753 0.9546
282 1 13.1357 6.2371 9.5581 0.9709
283 1 13.6574 6.0605 13.0218 0.9705
284 1 13.0000 6.2056 11.5685 1.0000
285 1 12.1942 6.6730 13.1318 1.0000
286 1 13.4341 7.1809 13.8001 0.9176
287 1 13.0906 5.5287 15.9425 0.9984
288 1 13.5799 6.8053 15.1669 0.9752
289 1 15.5512 10.2610 2.3702 1.0000
290 1 14.5351 11.3517 2.0965 1.0000
291 1 15.4128 9.1024 5.0607 1.0000
292 1 16.8349 9.3238 4.1400 0.9281
293 1 14.5828 10.5581 5.2578 0.9804
294 1 16.0049 11.3797 4.9258 0.9660
295 1 15.6943 10.3049 9.0222 1.0000
296 1 15.9809 10.4010 7.3692 1.0000
297 1 15.3158 10.0360 9.4650 0.9550
298 1 14.9864 11.4783 10.1110 0.9359
299 1 16.8102 9.0806 11.8374 1.0000
300 1 16.2680 10.6376 11.4026 1.0000
301 1 14.6707 10.7354 13.3977 0.9867
302 1 15.8878 10.2932 12.7488 0.9724
303 1 16.6065 9.3806 15.0309 1.0000
304 1 15.6712 9.1140 16.1363 1.0000
305 1 18.3516 15.3966 2.4910 0.9257
306 1 17.1569 15.8274 1.4820 1.0000
307 1 18.6047 14.6805 4.4686 1.0000
308 1 18.1582 13.7394 5.6770 0.9572
309 1 17.9848 14.1665 5.1708 1.0000
310 1 17.7974 14.8848 6.7267 1.0000
311 1 17.4510 13.5957 9.0280 0.9957
312 1 18.2639 14.5178 7.6729 0.9380
313 1 17.9521 15.6125 10.0183 1.0000
314 1 18.4710 14.2064 9.3242 1.0000
315 1 17.9713 13.0981 11.5705 0.9381
316 1 18.7613 13.2315 12.9158 0.9008
317 1 17.8120 14.8756 12.0065 0.9973
318 1 18.4205 14.6499 13.3643 1.0000
319 1 18.1948 13.5297 16.6674 1.0000
320 1 17.5969 14.2988 15.3556 0.9574
321 1 14.8385 3.1400 1.1351 1.0000
322 1 14.7715 3.2559 2.6646 0.8852
323 1 16.7373 1.3583 4.3599 1.0000
324 1 16.5640 2.4275 5.5010 0.9763
325 1 15.7878 2.6779 4.7468 0.9977
326 1 15.2380 2.6069 6.3734 0.9801
327 1 15.7615 1.7007 7.5248 0.9468
328 1 16.5678 2.9277 8.0144 0.9789
329 1 14.5181 3.6556 8.7662 0.9718
330 1 15.0369 2.5840 9.9312 1.0000
331 1 15.4800 2.3128 12.8230 0.9607
332 1 16.4054 2.9084 11.4671 0.9384
333 1 15.7571 3.1228 12.0720 1.0000
334 1 14.4790 3.5825 12.8539 0.9787
335 1 16.7346 1.4477 15.0260 0.9051
336 1 15.2339 2.0772 15.2836 0.9538
337 1 17.8734 7.0944 2.7891 0.9044
338 1 17.1860 6.3629 1.7753 0.9762
339 1 17.9946 6.9746 5.0016 0.9844
340 1 19.2703 6.1366 4.3038 0.9924
341 1 16.9191 6.9748 4.7472 1.0000
342 1 17.3590 8.0833 5.9186 0.9463
343 1 17.4394 5.9312 8.1412 1.0000
344 1 18.4129 5.7669 9.3174 0.9540
345 1 17.9528 6.3223 9.8974 1.0000
346 1 16.6702 7.3054 9.4870 0.9848
347 1 18.3347 5.1139 11.3497 1.0000
348 1 17.4278 5.9886 12.3724 0.9547
349 1 17.1970 8.1450 12.6999 0.9979
350 1 17.4722 7.1605 13.8297 1.0000
351 1 18.1485 6.4842 15.0667 0.9144
352 1 17.6781 5.7781 16.4504 0.9696
353 1 19.9077 12.0346 2.3205 0.9688
354 1 18.9856 10.6433 2.5604 0.9876
355 1 21.3612 9.6896 3.9337 1.0000
356 1 19.6499 9.4019 4.4048 1.0000
357 1 20.8852 11.3342 5.1494 0.9873
358 1 19.3391 10.7808 4.9182 1.0000
359 1 19.8234 9.6843 8.8558 1.0000
360 1 21.2959 10.1577 8.9113 1.0000
361 1 20.0745 10.2354 8.8633 0.9432
362 1 19.2540 11.5345 8.4196 0.8512
363 1 20.7793 8.9217 11.9976 0.9829
364 1 21.4955 10.1854 12.0646 1.0000
365 1 19.1572 10.4396 13.4240 0.9680
366 1 20.7134 10.6880 13.2292 1.0000
367 1 20.2720 8.8087 15.9740 1.0000
368 1 21.4190 9.6537 15.4577 1.0000
369 1 22.5931 14.8637 1.1311 0.9797
370 1 21.2779 15.6534 1.9166 0.9579
371 1 22.2084 13.0564 4.5819 0.9373
372 1 23.4475 13.5443 5.4494 0.9968
373 1 21.6564 15.3351 4.6847 0.9331
374 1 22.7171 14.3818 5.2568 1.0000
375 1 22.4558 12.8449 8.6434 1.0000
376 1 22.4737 14.1760 7.7082 1.0000
377 1 22.7024 15.0305 10.3219 1.0000
378 1 22.0264 15.8991 9.2280 0.9933
379 1 23.2381 13.4548 13.0388 1.0000
380 1 22.7922 14.6731 12.1951 0.9370
381 1 21.2062 14.9368 13.1225 1.0000
382 1 22.2141 16.1144 12.9091 0.9929
383 1 22.6999 14.5872 16.1335 1.0000
384 1 23.7883 13.8869 15.7444 0.9879
ITEM: TIMESTEP
100
ITEM: NUMBER OF ATOMS
384
ITEM: BOX BOUNDS pp pp pp
0.0 29.060000
0.0 17.623098
0.0 16.700000
ITEM: ATOMS id type x y z q_tetra
1 8 1.8418 3.1047 1.8984 1.0000
2 8 2.7271 1.9202 4.6631 0.9792
3 8 1.8112 3.2338 5.5647 1.0000
4 8 2.5855 1.8475 8.3724 0.9655
5 8 2.0204 3.3115 9.3207 0.9275
6 8 2.6423 1.9850 12.0284 0.9843
7 8 1.9766 3.3371 13.0463 0.9963
8 8 2.6697 1.9212 15.6652 1.0000
9 8 4.1216 7.1574 2.0743 0.9823
10 8 4.8318 5.8935 4.5581 1.0000
11 8 4.0449 7.2133 5.5605 1.0000
12 8 4.9061 5.9439 8.5468 0.9964
13 8 4.2352 7.0861 9.1969 0.9300
14 8 4.8063 5.9117 12.1674 0.9848
15 8 4.2178 7.1995 12.9070 1.0000
16 8 4.9942 5.8905 15.6747 0.9905
17 8 6.2779 11.1040 1.8933 1.0000
18 8 7.0771 9.6520 4.8418 1.0000
19 8 6.3644 11.0794 5.6325 1.0000
20 8 7.1590 9.8035 8.3829 0.9985
21 8 6.3570 11.0445 9.3568 1.0000
22 8 7.0857 9.8655 12.0706 0.9455
23 8 6.3785 10.9994 12.9538 0.9580
24 8 7.1926 9.8308 15.7050 0.9980
25 8 8.6699 14.9604 1.9736 0.9586
26 8 9.4362 13.7736 4.7527 1.0000
27 8 8.7569 15.1118 5.8138 0.9777
28 8 9.3455 13.6532 8.3149 1.0000
29 8 8.4990 15.0126 9.3255 1.0000
30 8 9.4344 13.5315 12.0422 0.9848
31 8 8.5632 15.0579 13.0064 0.9516
32 8 9.3392 13.4983 15.7604 1.0000
33 8 6.5277 3.2337 1.7233 0.9727
34 8 7.0368 2.0667 4.7284 1.0000
35 8 6.3952 3.2560 5.7161 0.9963
36 8 7.2943 2.1129 8.3378 0.9400
37 8 6.3614 3.3020 9.3274 1.0000
38 8 7.0757 1.8723 11.8558 0.9430
39 8 6.2216 3.4543 12.9555 0.9994
40 8 7.0839 1.8971 15.6953 0.8865
41 8 8.5038 7.1098 1.8951 1.0000
42 8 9.3427 5.9076 4.7368 1.0000
43 8 8.6069 7.1589 5.6342 0.9061
44 8 9.2962 5.9232 8.2933 0.9273
45 8 8.5413 7.2600 9.2954 0.9194
46 8 9.4204 5.8668 11.8634 1.0000
47 8 8.4639 7.3063 12.8006 0.9814
48 8 9.3256 5.9512 15.7813 1.0000
49 8 10.8637 11.1907 1.9248 1.0000
50 8 11.7420 9.7045 4.6179 0.9962
51 8 10.6801 11.2708 5.6845 0.9559
52 8 11.6576 9.9239 8.3340 0.9986
53 8 10.8813 11.0848 9.2844 0.9202
54 8 11.6956 9.8189 12.0459 1.0000
55 8 10.8617 11.0809 12.9225 0.9176
56 8 11.6093 9.7685 15.6165 1.0000
57 8 13.1834 14.9593 2.0286 1.0000
58 8 13.8521 13.7523 4.6163 0.9856
59 8 13.1324 14.9872 5.4330 0.9549
60 8 13.8048 13.7397 8.2817 1.0000
61 8 13.2412 15.0248 9.4022 0.9160
62 8 13.9124 13.7662 12.0736 1.0000
63 8 13.1084 14.8722 12.8378 0.9557
64 8 13.8236 13.6832 15.7658 1.0000
65 8 10.8654 3.2886 1.9559 1.0000
66 8 11.7471 2.0332 4.7795 1.0000
67 8 10.9164 3.3160 5.4710 0.9377
68 8 11.5418 1.9596 8.4230 0.9134
69 8 10.6936 3.3715 9.3102 1.0000
70 8 11.5534 1.9325 12.0543 1.0000
71 8 10.9401 3.3686 13.0130 0.9975
72 8 11.4858 2.0655 15.6398 0.9113
73 8 13.1584 7.1395 1.8294 0.9777
74 8 13.9083 5.9577 4.6453 0.9626
75 8 13.0611 7.3053 5.6497 1.0000
76 8 13.8426 5.9210 8.3786 0.9518
77 8 13.0871 7.2723 9.3280 1.0000
78 8 13.8939 5.8465 12.0413 1.0000
79 8 13.0720 7.2652 12.8586 0.9824
80 8 13.9305 5.9789 15.7703 0.9961
81 8 15.3304 11.0634 1.8332 1.0000
82 8 16.0563 9.8433 4.4959 1.0000
83 8 15.3764 11.2344 5.6572 1.0000
84 8 16.2623 9.8104 8.4006 1.0000
85 8 15.4617 11.0723 9.3090 1.0000
86 8 16.1786 9.8003 12.2029 0.9959
87 8 15.4660 11.2784 12.9988 0.9392
88 8 16.0970 9.8157 15.7755 0.9516
89 8 17.5805 14.9772 2.0213 0.9823
90 8 18.4322 13.5388 4.5586 0.9865
91 8 17.6441 15.1798 5.5758 1.0000
92 8 18.5190 13.6788 8.2874 0.9453
93 8 17.6743 14.8419 9.3195 1.0000
94 8 18.3377 13.6957 11.8612 0.9927
95 8 17.7280 15.1597 12.8416 1.0000
96 8 18.4192 13.7103 15.8108 1.0000
97 8 15.3941 3.4367 1.9790 1.0000
98 8 16.1128 2.0635 4.6913 0.9516
99 8 15.2532 3.3305 5.5922 1.0000
100 8 16.1977 1.9491 8.3524 1.0000
101 8 15.2707 3.5290 9.2374 0.9675
102 8 16.1815 1.9427 11.9181 1.0000
103 8 15.5274 3.1797 12.9058 0.9782
104 8 16.1309 2.1153 15.7632 0.9734
105 8 17.5756 7.2793 1.9577 0.9985
106 8 18.3524 5.8637 4.8041 0.9587
107 8 17.5697 7.3918 5.5840 1.0000
108 8 18.3456 5.7585 8.2859 0.9727
109 8 17.6180 7.2600 9.2838 1.0000
110 8 18.3677 5.9045 12.0353 1.0000
111 8 17.7501 7.1842 13.0196 0.9145
112 8 18.3559 5.7306 15.7305 0.9193
113 8 19.7957 11.0721 1.9571 1.0000
114 8 20.6194 9.7406 4.6187 0.9725
115 8 19.9193 11.0242 5.6515 1.0000
116 8 20.6580 9.7192 8.3937 0.9821
117 8 19.9858 11.1695 9.3181 1.0000
118 8 20.6740 9.8373 12.0018 1.0000
119 8 19.8773 11.0772 12.8998 0.9696
120 8 20.6282 9.8160 15.6733 1.0000
121 8 22.1999 15.0113 1.9147 0.9799
122 8 22.7746 13.8484 4.8233 0.9855
123 8 22.0651 14.9258 5.6515 1.0000
124 8 22.8873 13.8110 8.3607 1.0000
125 8 21.9719 15.0131 9.2610 1.0000
126 8 22.9181 13.8159 12.0620 0.9698
127 8 22.3738 14.9936 12.9057 0.9385
128 8 22.9816 13.7379 15.6203 0.9732
129 1 1.1752 3.3052 2.5771 0.9945
130 1 2.2758 2.3787 1.7756 1.0000
131 1 2.3265 2.7568 4.0316 1.0000
132 1 2.5546 1.1327 4.2273 1.0000
133 1 1.0994 2.7777 5.5208 0.9436
134 1 1.6702 4.2670 5.1401 0.9118
135 1 3.6224 2.0539 8.8533 0.9721
136 1 2.3216 1.0219 8.0904 0.9904
137 1 2.3859 3.1267 10.0929 0.9311
138 1 2.0687 2.5165 8.6617 0.9882
139 1 2.6020 0.9477 12.0571 1.0000
140 1 1.7781 2.2192 11.4655 0.9423
141 1 0.9794 3.6692 13.3376 1.0000
142 1 2.5860 3.7089 13.6812 0.9809
143 1 1.6156 1.6376 15.9957 1.0000
144 1 3.0201 1.0924 15.2927 0.9162
145 1 4.2956 6.2803 2.3605 0.9245
146 1 4.8541 7.6942 2.1720 0.9459
147 1 4.5139 6.8461 5.0039 0.9690
148 1 6.0062 5.8781 4.5746 0.9559
149 1 3.3150 7.9137 5.8575 0.9869
150 1 4.7906 7.3395 6.3830 1.0000
151 1 4.1791 5.7355 8.9740 0.9497
152 1 5.1754 6.8937 8.6083 1.0000
153 1 4.1828 8.2934 9.4850 1.0000
154 1 4.4256 7.1029 8.2910 1.0000
155 1 4.7251 4.9606 11.4977 1.0000
156 1 4.4362 6.5600 11.4983 1.0000
157 1 4.8633 7.5404 13.6757 0.9928
158 1 4.5517 6.5272 12.5199 1.0000
159 1 5.3382 6.8001 15.7309 0.9582
160 1 5.5015 5.3001 16.1594 1.0000
161 1 6.3071 12.0733 1.7314 1.0000
162 1 5.9548 11.0225 2.7592 1.0000
163 1 7.6961 9.8702 4.0005 0.9354
164 1 6.6041 8.7971 4.5869 0.9858
165 1 5.3561 11.2423 5.8807 0.9492
166 1 6.8939 12.0790 5.5666 0.9601
167 1 6.2221 9.4750 7.7673 0.9682
168 1 6.6643 10.6430 8.8310 0.9122
169 1 5.6177 11.2386 8.4985 1.0000
170 1 5.8930 10.2578 9.4474 0.9890
171 1 6.3452 10.0890 12.6235 1.0000
172 1 7.5774 10.6945 11.9153 1.0000
173 1 7.2214 10.5439 13.0635 1.0000
174 1 5.6364 10.3030 13.0252 1.0000
175 1 7.5632 8.9189 16.1304 0.9878
176 1 7.1907 9.4493 14.8084 1.0000
177 1 9.3879 14.2577 1.7352 1.0000
178 1 8.3972 15.3340 0.8545 1.0000
179 1 9.3850 14.4295 3.9039 0.9909
180 1 8.5774 13.2009 4.7575 1.0000
181 1 9.5310 15.3385 5.0828 1.0000
182 1 8.3404 14.0972 5.3740 1.0000
183 1 9.3989 13.0461 7.5754 0.9821
184 1 8.6339 13.4376 8.8916 1.0000
185 1 7.8235 15.0214 8.9628 1.0000
186 1 9.1377 14.0821 9.0865 0.9632
187 1 9.5502 12.9250 12.4007 1.0000
188 1 9.9696 14.3105 12.1385 0.9640
189 1 7.7447 14.9734 12.5103 1.0000
190 1 9.2067 14.7323 12.2614 1.0000
191 1 9.3656 13.7212 16.6868 1.0000
192 1 8.7169 12.9909 15.3115 0.9242
193 1 7.2376 3.7533 2.1795 1.0000
194 1 6.6429 2.5236 1.3325 0.9081
195 1 6.4406 2.5870 4.5975 1.0000
196 1 7.9701 2.5442 4.7001 1.0000
197 1 6.9311 3.8304 5.0055 0.9456
198 1 6.4355 3.9147 6.4421 0.8928
199 1 7.4038 1.3735 8.8663 1.0000
200 1 6.1873 1.8435 8.3165 0.9768
201 1 6.4821 2.4150 9.6805 1.0000
202 1 6.8047 3.2186 8.5453 0.9114
203 1 6.1898 1.7896 11.5250 1.0000
204 1 7.0540 1.4996 12.9463 0.9617
205 1 5.6842 4.0387 13.3851 0.9813
206 1 6.8916 2.7947 13.6303 1.0000
207 1 7.1570 2.2257 16.6629 1.0000
208 1 7.9540 2.3814 15.2947 0.9948
209 1 8.5202 8.2091 1.5321 1.0000
210 1 9.3814 6.7043 1.6747 1.0000
211 1 9.5811 6.8410 4.4298 1.0000
212 1 10.0407 5.7944 5.4689 0.9433
213 1 8.8921 6.3573 5.9905 1.0000
214 1 7.9040 7.4904 6.1971 0.9485
215 1 9.8215 5.8037 7.3229 0.9953
216 1 8.7940 4.9979 8.4401 0.9801
217 1 9.4620 7.3848 9.7329 1.0000
218 1 8.9653 6.9163 8.5590 0.9612
219 1 9.0242 5.1039 12.4427 0.9614
220 1 8.6650 6.5973 12.1065 0.9634
221 1 7.7262 6.6465 13.3360 0.9675
222 1 8.8586 7.8045 13.5868 0.9979
223 1 10.2102 5.2658 15.7269 1.0000
224 1 8.7559 5.7761 16.4367 1.0000
225 1 10.7027 12.1919 1.8398 1.0000
226 1 9.9918 10.8173 2.3462 0.9953
227 1 12.5586 9.9691 5.2896 1.0000
228 1 11.7115 10.6197 4.1785 1.0000
229 1 10.1983 10.4125 5.7359 0.9721
230 1 11.4040 10.7931 5.0279 1.0000
231 1 11.7769 10.6895 8.0035 0.9748
232 1 12.4595 9.6641 8.8545 1.0000
233 1 11.8651 10.9153 9.1576 1.0000
234 1 10.6171 12.0219 9.4948 1.0000
235 1 10.9736 9.2891 11.5957 0.9720
236 1 11.7699 9.2973 12.9121 0.9957
237 1 10.4068 10.8340 13.8775 1.0000
238 1 10.3707 10.7665 12.0572 1.0000
239 1 12.6382 9.5657 15.8815 1.0000
240 1 11.2210 9.1035 15.1653 0.8437
241 1 13.0687 15.4120 1.1288 0.9982
242 1 13.2850 15.7571 2.6579 0.9264
243 1 13.9530 14.4559 5.2197 1.0000
244 1 14.3538 13.8737 3.9659 1.0000
245 1 12.9032 15.2194 4.7197 0.9011
246 1 13.4592 14.1118 5.6653 0.9413
247 1 13.7260 12.7591 8.9413 0.9688
248 1 13.0387 13.5786 7.8582 0.9397
249 1 13.6503 14.2653 9.0097 1.0000
250 1 12.6588 14.7136 10.1994 0.9583
251 1 13.8897 13.1465 12.7353 0.9608
252 1 14.7106 13.2814 11.4944 1.0000
253 1 13.1180 14.0615 12.4881 1.0000
254 1 14.0889 15.2276 13.1858 1.0000
255 1 13.1405 14.2404 15.9689 1.0000
256 1 14.0537 14.0782 14.9013 1.0000
257 1 10.8543 3.6827 2.8155 1.0000
258 1 10.9410 4.1155 1.5077 0.9821
259 1 12.4638 1.7449 4.9610 1.0000
260 1 11.2240 1.2684 5.1859 1.0000
261 1 11.7875 3.5783 5.9942 0.9794
262 1 10.9497 2.2404 5.2289 0.9996
263 1 12.5567 1.4598 8.3637 1.0000
264 1 11.5937 2.6996 9.2019 1.0000
265 1 10.4412 4.1451 9.8059 1.0000
266 1 11.6186 2.8971 9.9394 0.9446
267 1 10.9251 2.7512 11.7726 0.9846
268 1 11.0175 1.2373 12.1669 0.9375
269 1 10.7641 3.9444 12.3966 1.0000
270 1 12.0267 3.1195 12.7705 0.9552
271 1 12.5844 2.2762 15.8516 1.0000
272 1 11.1430 2.8450 15.6831 1.0000
273 1 14.0777 7.3970 2.3944 1.0000
274 1 12.5781 7.4646 2.5715 1.0000
275 1 14.5991 5.0745 4.9090 1.0000
276 1 12.9593 5.5988 4.7741 0.9296
277 1 12.9891 8.2116 6.0823 1.0000
278 1 14.1373 6.9938 5.4746 0.9638
279 1 14.5992 5.4641 8.9547 1.0000
280 1 13.1229 5.1296 8.3633 1.0000
281 1 12.3836 7.0824 8.6308 1.0000
282 1 13.1608 6.2005 9.8222 1.0000
283 1 13.7529 6.0250 13.1941 1.0000
284 1 13.0774 6.2310 11.5652 0.9384
285 1 12.3303 6.6654 12.8902 0.9532
286 1 13.5664 7.0030 13.8552 0.9365
287 1 12.9939 5.5863 15.9269 1.0000
288 1 13.5617 6.9496 15.2612 0.9772
289 1 15.4866 10.3435 2.3238 0.9930
290 1 14.3888 11.3106 2.1095 0.9206
291 1 15.6416 9.1822 5.0139 0.9804
292 1 16.9299 9.3997 4.1034 0.9288
293 1 14.8733 10.5575 5.1260 0.9064
294 1 16.0726 11.2483 4.8640 1.0000
295 1 15.5800 10.4633 9.0780 0.9625
296 1 16.0919 10.4054 7.6728 0.9313
297 1 15.4303 10.1290 9.3246 1.0000
298 1 14.8710 11.4255 10.1395 0.9843
299 1 16.8675 9.2072 11.8219 0.9483
300 1 16.2726 10.3562 11.3951 0.9752
301 1 14.5512 10.7777 13.5271 0.9965
302 1 16.0129 10.4030 12.8452 0.9771
303 1 16.6003 9.0953 14.8767 1.0000
304 1 15.6687 9.1435 16.1839 0.9928
305 1 18.3400 15.4282 2.6295 1.0000
306 1 17.0587 15.8337 1.5360 1.0000
307 1 18.5074 14.6500 4.4334 0.9142
308 1 18.2325 13.7724 5.7325 1.0000
309 1 17.9395 14.2670 5.1347 0.9114
310 1 17.6637 14.7973 6.6114 1.0000
311 1 17.4296 13.6535 8.8209 0.9884
312 1 18.4565 14.4417 7.6263 1.0000
313 1 18.1412 15.6687 9.9772 0.9578
314 1 18.3474 14.3132 9.3894 1.0000
315 1 17.9725 12.9841 11.6404 1.0000
316 1 18.6773 13.5202 12.7948 1.0000
317 1 17.8945 14.7683 11.9575 0.8883
318 1 18.5637 14.4975 13.3406 1.0000
319 1 17.9916 13.4130 16.7053 0.9950
320 1 17.8365 14.2350 15.2055 1.0000
321 1 14.8346 2.9315 1.1279 1.0000
322 1 14.7438 3.3033 2.7145 1.0000
323 1 16.6972 1.2306 4.2544 0.9631
324 1 16.5381 2.4103 5.5774 1.0000
325 1 15.6743 2.6846 4.8626 0.9809
326 1 15.2460 2.6881 6.3016 0.9892
327 1 15.6276 1.6093 7.5063 1.0000
328 1 16.5531 2.9192 8.0746 1.0000
329 1 14.6587 3.5978 8.7134 0.9473
330 1 14.9219 2.4390 9.6692 1.0000
331 1 15.4285 2.4206 12.6569 1.0000
332 1 16.3931 2.7935 11.6094 1.0000
333 1 15.5630 3.1461 12.1384 1.0000
334 1 14.2181 3.3945 12.9947 0.9561
335 1 16.7087 1.4761 15.1677 1.0000
336 1 15.2867 2.1496 15.1795 0.9364
337 1 17.8885 7.1058 2.7276 1.0000
338 1 16.9448 6.5205 1.7514 1.0000
339 1 18.2563 6.7955 4.9866 0.9978
340 1 19.2512 5.9316 4.2034 1.0000
341 1 16.9514 6.9188 4.8409 1.0000
342 1 17.5473 8.2097 5.8529 1.0000
343 1 17.4860 5.9198 8.0747 0.9902
344 1 18.4477 5.7296 9.3390 1.0000
345 1 17.8378 6.3446 9.6921 1.0000
346 1 16.7464 7.0768 9.3699 1.0000
347 1 18.4022 5.3172 11.3500 0.9793
348 1 17.5322 5.9578 12.5566 0.9643
349 1 17.2709 8.1316 12.7188 0.9942
350 1 17.4423 6.9695 14.0271 1.0000
351 1 18.0121 6.5976 15.1505 1.0000
352 1 17.7525 5.9200 16.4579 0.9745
353 1 19.7812 12.0715 2.2235 0.8740
354 1 19.0300 10.7016 2.3570 1.0000
355 1 21.4196 9.4376 3.9842 1.0000
356 1 19.8704 9.4486 4.3450 0.9519
357 1 20.8702 11.2820 5.2261 0.9946
358 1 19.4368 10.8199 4.7628 1.0000
359 1 19.6591 9.6998 8.9274 1.0000
360 1 21.1966 10.1999 8.8867 1.0000
361 1 20.2417 10.1695 9.0532 1.0000
362 1 19.4167 11.5240 8.5676 1.0000
363 1 20.6277 8.9136 11.9005 0.9626
364 1 21.6151 10.1993 12.0374 0.9466
365 1 19.3220 10.5810 13.5058 0.9958
366 1 20.9197 10.7386 13.1684 0.9521
367 1 20.3620 8.9225 16.1683 0.9312
368 1 21.6269 9.7468 15.5593 0.9893
369 1 22.5135 14.8610 0.9238 0.8565
370 1 21.4389 15.5690 1.9652 1.0000
371 1 22.1962 12.8965 4.7301 1.0000
372 1 23.4124 13.4901 5.2994 0.9847
373 1 21.6023 15.1685 4.8131 1.0000
374 1 22.7487 14.4497 5.4389 0.9865
375 1 22.3573 12.7876 8.4925 0.9837
376 1 22.2227 14.2000 7.6349 0.9354
377 1 22.8017 14.8986 10.1130 0.9779
378 1 21.8839 16.0737 9.1297 0.9547
379 1 23.2211 13.3861 12.9815 1.0000
380 1 22.6726 14.5188 12.0703 0.9698
381 1 21.2356 14.7274 13.2878 0.9882
382 1 22.2312 15.9826 12.9155 0.9881
383 1 22.7542 14.6983 16.2130 0.9987
384 1 23.8964 13.7579 15.6458 0.9914
ITEM: TIMESTEP
200
ITEM: NUMBER OF ATOMS
384
ITEM: BOX BOUNDS pp pp pp
0.0 29.060000
0.0 17.623098
0.0 16.700000
ITEM: ATOMS id type x y z q_tetra
1 8 1.8101 3.3279 1.9194 1.0000
2 8 2.6566 2.0390 4.7906 0.9603
3 8 1.8096 3.2305 5.5314 0.9967
4 8 2.5681 1.9966 8.2715 1.0000
5 8 1.7179 3.0818 9.4039 0.9907
6 8 2.6585 1.9793 12.0135 0.9330
7 8 1.8579 3.2702 12.8210 1.0000
8 8 2.6720 1.9756 15.7695 1.0000
9 8 4.1155 7.1908 1.9036 0.9532
10 8 4.9572 5.9720 4.7565 0.9272
11 8 4.0996 7.2180 5.6411 0.9989
12 8 4.9192 5.9452 8.3650 0.9740
13 8 4.0555 7.2297 9.1916 0.8507
14 8 4.9915 5.8550 12.0308 0.9986
15 8 4.1216 7.2544 12.9463 0.9478
16 8 4.9314 5.8373 15.7850 0.9580
17 8 6.2354 11.1616 2.2428 1.0000
18 8 7.0842 9.8466 4.6847 0.9254
19 8 6.3170 11.1698 5.5712 0.9904
20 8 7.0712 9.8125 8.2848 0.9804
21 8 6.3226 11.1819 9.2897 1.0000
22 8 7.0793 9.8867 11.9788 1.0000
23 8 6.2451 10.9893 13.0615 0.9645
24 8 7.0956 9.8120 15.6863 1.0000
25 8 8.6524 15.0441 1.9189 1.0000
26 8 9.1996 13.6979 4.7208 0.9813
27 8 8.7369 15.0153 5.5499 0.9235
28 8 9.4155 13.6807 8.2576 0.9186
29 8 8.6913 15.1721 9.3470 0.9900
30 8 9.2554 13.8084 12.0404 0.9906
31 8 8.6685 15.0723 12.9302 1.0000
32 8 9.4787 13.5547 15.7553 0.9573
33 8 6.3377 3.3365 1.9595 1.0000
34 8 7.1534 2.0693 4.6055 0.9553
35 8 6.4523 3.2349 5.6444 0.9435
36 8 7.1774 2.0723 8.4038 1.0000
37 8 6.4399 3.3197 9.2839 1.0000
38 8 7.0326 2.0301 12.0577 0.9917
39 8 6.4345 3.1181 12.8875 1.0000
40 8 7.2790 1.8923 15.8486 1.0000
41 8 8.7363 7.2669 1.9871 0.9996
42 8 9.3206 5.9985 4.5874 1.0000
43 8 8.5808 7.1748 5.7301 0.9681
44 8 9.4697 5.9372 8.4018 0.8890
45 8 8.6016 7.2710 9.2618 1.0000
46 8 9.3384 5.9821 11.9904 0.9374
47 8 8.5889 7.1962 12.8820 1.0000
48 8 9.4183 6.0050 15.7701 1.0000
49 8 10.8758 11.0135 1.8126 1.0000
50 8 11.5771 9.8933 4.6722 0.9560
51 8 10.8310 11.2190 5.6476 1.0000
52 8 11.6124 9.7505 8.2908 1.0000
53 8 10.8474 11.1502 9.2739 1.0000
54 8 11.8090 9.9346 12.0137 0.9800
55 8 10.8889 11.1970 12.8700 1.0000
56 8 11.7623 9.8144 15.6382 1.0000
57 8 13.2209 14.9873 1.9271 0.9982
58 8 13.8278 13.7093 4.6527 0.9980
59 8 13.1863 14.8748 5.5885 1.0000
60 8 13.7834 13.8051 8.3746 1.0000
61 8 13.1584 14.8466 9.2173 1.0000
62 8 13.8399 13.6738 12.0167 0.9870
63 8 13.0212 15.0819 13.0221 0.9678
64 8 13.8724 13.7443 15.8190 1.0000
65 8 10.8901 3.4224 1.9211 1.0000
66 8 11.5509 2.0948 4.7968 0.9765
67 8 10.8512 3.2661 5.6503 1.0000
68 8 11.5184 1.9630 8.3986 1.0000
69 8 10.9634 3.3464 9.3538 1.0000
70 8 11.7667 1.9766 12.0440 1.0000
71 8 10.9144 3.2817 12.9036 0.8791
72 8 11.6882 1.9684 15.7114 1.0000
73 8 13.1051 7.2752 1.8453 1.0000
74 8 13.8649 5.8841 4.7225 0.9283
75 8 13.1366 7.2823 5.5058 0.9896