ITEM: TIMESTEP
1
ITEM: NUMBER OF ATOMS
960
ITEM: BOX BOUNDS pp pp pp
0.0 52.0
0.0 52.0
0.0 52.0
ITEM: ATOMS id type x y z
1 57 0.000 0.000 0.000
2 57 6.500 6.500 0.000
3 40 3.250 3.250 3.250
4 40 9.750 9.750 9.750
5 8 2.600 0.000 0.000
6 8 10.400 0.000 0.000
7 8 0.000 2.600 0.000
8 8 0.000 10.400 0.000
9 3 4.951 8.945 3.466
10 3 5.134 5.428 12.813
11 3 9.450 10.841 0.659
12 3 4.854 3.752 8.891
13 3 4.281 3.722 12.481
14 3 0.277 3.274 12.675
15 3 7.872 0.532 11.033
16 57 0.000 0.000 13.000
17 57 6.500 6.500 13.000
18 40 3.250 3.250 16.250
19 40 9.750 9.750 22.750
20 8 2.600 0.000 13.000
21 8 10.400 0.000 13.000
22 8 0.000 2.600 13.000
23 8 0.000 10.400 13.000
24 3 11.209 2.527 18.707
25 3 10.204 9.358 16.565
26 3 3.053 5.227 18.554
27 3 6.395 2.297 17.564
28 3 10.544 11.839 25.282
29 3 12.787 3.097 24.978
30 3 10.049 11.577 14.852
31 57 0.000 0.000 26.000
32 57 6.500 6.500 26.000
33 40 3.250 3.250 29.250
34 40 9.750 9.750 35.750
35 8 2.600 0.000 26.000
36 8 10.400 0.000 26.000
37 8 0.000 2.600 26.000
38 8 0.000 10.400 26.000
39 3 12.755 7.547 34.451
40 3 7.338 5.870 26.451
41 3 6.636 9.349 30.045
42 3 3.837 2.305 27.478
43 3 4.559 8.721 30.339
44 3 10.379 5.257 35.322
45 3 0.931 9.794 33.816
46 57 0.000 0.000 39.000
47 57 6.500 6.500 39.000
48 40 3.250 3.250 42.250
49 40 9.750 9.750 48.750
50 8 2.600 0.000 39.000
51 8 10.400 0.000 39.000
52 8 0.000 2.600 39.000
53 8 0.000 10.400 39.000
54 3 9.284 0.138 44.855
55 3 11.588 5.032 39.449
56 3 12.752 12.478 46.929
57 3 4.459 1.087 48.109
58 3 7.710 3.166 45.439
59 3 8.165 1.059 51.269
60 3 2.692 12.160 39.321
61 57 0.000 13.000 0.000
62 57 6.500 19.500 0.000
63 40 3.250 16.250 3.250
64 40 9.750 22.750 9.750
65 8 2.600 13.000 0.000
66 8 10.400 13.000 0.000
67 8 0.000 15.600 0.000
68 8 0.000 23.400 0.000
69 3 2.346 14.801 9.472
70 3 0.903 19.766 4.143
71 3 2.828 19.079 11.157
72 3 11.436 18.391 11.206
73 3 2.874 25.454 8.968
74 3 8.321 19.633 11.530
75 3 2.278 17.183 11.317
76 57 0.000 13.000 13.000
77 57 6.500 19.500 13.000
78 40 3.250 16.250 16.250
79 40 9.750 22.750 22.750
80 8 2.600 13.000 13.000
81 8 10.400 13.000 13.000
82 8 0.000 15.600 13.000
83 8 0.000 23.400 13.000
84 3 9.297 22.523 25.857
85 3 5.403 19.558 22.698
86 3 3.897 23.116 22.145
87 3 9.404 17.099 17.796
88 3 3.130 24.333 18.706
89 3 10.922 25.279 23.634
90 3 3.708 24.355 22.301
91 57 0.000 13.000 26.000
92 57 6.500 19.500 26.000
93 40 3.250 16.250 29.250
94 40 9.750 22.750 35.750
95 8 2.600 13.000 26.000
96 8 10.400 13.000 26.000
97 8 0.000 15.600 26.000
98 8 0.000 23.400 26.000
99 3 12.008 13.081 27.910
100 3 10.472 23.600 37.547
101 3 0.272 21.164 29.796
102 3 12.991 19.530 33.120
103 3 6.465 25.578 26.115
104 3 0.140 22.871 31.699
105 3 8.328 20.766 37.649
106 57 0.000 13.000 39.000
107 57 6.500 19.500 39.000
108 40 3.250 16.250 42.250
109 40 9.750 22.750 48.750
110 8 2.600 13.000 39.000
111 8 10.400 13.000 39.000
112 8 0.000 15.600 39.000
113 8 0.000 23.400 39.000
114 3 10.156 16.721 49.648
115 3 12.796 25.707 42.972
116 3 11.640 16.066 44.963
117 3 7.592 14.110 40.525
118 3 3.370 13.917 51.555
119 3 0.526 14.206 49.546
120 3 2.203 14.705 42.091
121 57 0.000 26.000 0.000
122 57 6.500 32.500 0.000
123 40 3.250 29.250 3.250
124 40 9.750 35.750 9.750
125 8 2.600 26.000 0.000
126 8 10.400 26.000 0.000
127 8 0.000 28.600 0.000
128 8 0.000 36.400 0.000
129 3 9.514 35.129 12.437
130 3 11.685 28.125 0.383
131 3 3.260 28.530 10.772
132 3 7.475 34.000 9.771
133 3 2.947 35.224 4.140
134 3 1.536 36.731 6.158
135 3 10.165 27.518 5.174
136 57 0.000 26.000 13.000
137 57 6.500 32.500 13.000
138 40 3.250 29.250 16.250
139 40 9.750 35.750 22.750
140 8 2.600 26.000 13.000
141 8 10.400 26.000 13.000
142 8 0.000 28.600 13.000
143 8 0.000 36.400 13.000
144 3 1.315 31.327 21.140
145 3 8.061 33.850 20.674
146 3 12.945 35.254 24.418
147 3 10.522 38.123 13.478
148 3 2.472 31.634 23.543
149 3 12.511 36.077 15.474
150 3 1.229 31.363 18.990
151 57 0.000 26.000 26.000
152 57 6.500 32.500 26.000
153 40 3.250 29.250 29.250
154 40 9.750 35.750 35.750
155 8 2.600 26.000 26.000
156 8 10.400 26.000 26.000
157 8 0.000 28.600 26.000
158 8 0.000 36.400 26.000
159 3 6.794 26.632 28.476
160 3 7.600 26.645 32.420
161 3 0.446 35.184 33.782
162 3 0.114 38.490 38.055
163 3 8.916 33.636 33.637
164 3 4.277 33.668 28.418
165 3 5.391 27.002 32.338
166 57 0.000 26.000 39.000
167 57 6.500 32.500 39.000
168 40 3.250 29.250 42.250
169 40 9.750 35.750 48.750
170 8 2.600 26.000 39.000
171 8 10.400 26.000 39.000
172 8 0.000 28.600 39.000
173 8 0.000 36.400 39.000
174 3 1.025 37.938 44.930
175 3 2.748 28.372 50.832
176 3 7.165 29.158 51.563
177 3 5.575 26.535 51.572
178 3 5.398 38.149 46.652
179 3 11.063 29.677 42.253
180 3 1.952 32.732 49.764
181 57 0.000 39.000 0.000
182 57 6.500 45.500 0.000
183 40 3.250 42.250 3.250
184 40 9.750 48.750 9.750
185 8 2.600 39.000 0.000
186 8 10.400 39.000 0.000
187 8 0.000 41.600 0.000
188 8 0.000 49.400 0.000
189 3 4.056 49.426 1.731
190 3 7.776 49.095 3.827
191 3 3.224 44.552 1.573
192 3 7.980 39.436 2.553
193 3 0.460 51.422 12.056
194 3 12.951 46.524 0.203
195 3 8.687 45.382 11.597
196 57 0.000 39.000 13.000
197 57 6.500 45.500 13.000
198 40 3.250 42.250 16.250
199 40 9.750 48.750 22.750
200 8 2.600 39.000 13.000
201 8 10.400 39.000 13.000
202 8 0.000 41.600 13.000
203 8 0.000 49.400 13.000
204 3 2.309 43.713 25.784
205 3 3.246 48.748 17.571
206 3 5.094 49.485 18.747
207 3 2.026 43.430 24.401
208 3 7.168 46.545 17.095
209 3 10.015 49.359 22.364
210 3 4.448 48.602 16.072
211 57 0.000 39.000 26.000
212 57 6.500 45.500 26.000
213 40 3.250 42.250 29.250
214 40 9.750 48.750 35.750
215 8 2.600 39.000 26.000
216 8 10.400 39.000 26.000
217 8 0.000 41.600 26.000
218 8 0.000 49.400 26.000
219 3 5.597 49.671 37.280
220 3 11.596 42.662 29.449
221 3 2.085 41.507 31.129
222 3 9.923 48.697 27.987
223 3 6.459 43.121 36.598
224 3 5.244 39.306 29.464
225 3 3.651 46.200 32.411
226 57 0.000 39.000 39.000
227 57 6.500 45.500 39.000
228 40 3.250 42.250 42.250
229 40 9.750 48.750 48.750
230 8 2.600 39.000 39.000
231 8 10.400 39.000 39.000
232 8 0.000 41.600 39.000
233 8 0.000 49.400 39.000
234 3 8.549 40.091 50.933
235 3 12.224 42.303 47.480
236 3 7.600 48.648 39.360
237 3 8.772 45.925 39.283
238 3 8.597 46.835 39.792
239 3 9.055 43.966 44.195
240 3 6.307 41.555 43.088
241 57 13.000 0.000 0.000
242 57 19.500 6.500 0.000
243 40 16.250 3.250 3.250
244 40 22.750 9.750 9.750
245 8 15.600 0.000 0.000
246 8 23.400 0.000 0.000
247 8 13.000 2.600 0.000
248 8 13.000 10.400 0.000
249 3 18.931 0.374 4.606
250 3 25.134 7.488 3.578
251 3 19.486 4.035 7.542
252 3 19.538 3.763 6.504
253 3 22.684 9.874 1.153
254 3 16.068 11.979 7.984
255 3 21.617 9.606 0.026
256 57 13.000 0.000 13.000
257 57 19.500 6.500 13.000
258 40 16.250 3.250 16.250
259 40 22.750 9.750 22.750
260 8 15.600 0.000 13.000
261 8 23.400 0.000 13.000
262 8 13.000 2.600 13.000
263 8 13.000 10.400 13.000
264 3 19.909 8.102 19.924
265 3 14.821 0.514 16.887
266 3 13.217 12.910 24.244
267 3 14.675 12.039 13.623
268 3 25.825 9.456 23.727
269 3 24.968 9.842 13.820
270 3 13.995 6.259 13.235
271 57 13.000 0.000 26.000
272 57 19.500 6.500 26.000
273 40 16.250 3.250 29.250
274 40 22.750 9.750 35.750
275 8 15.600 0.000 26.000
276 8 23.400 0.000 26.000
277 8 13.000 2.600 26.000
278 8 13.000 10.400 26.000
279 3 16.238 0.982 32.296
280 3 16.595 11.862 26.168
281 3 14.008 4.305 31.021
282 3 20.607 11.313 32.006
283 3 20.375 0.542 32.499
284 3 21.394 6.968 34.229
285 3 17.237 1.753 28.292
286 57 13.000 0.000 39.000
287 57 19.500 6.500 39.000
288 40 16.250 3.250 42.250
289 40 22.750 9.750 48.750
290 8 15.600 0.000 39.000
291 8 23.400 0.000 39.000
292 8 13.000 2.600 39.000
293 8 13.000 10.400 39.000
294 3 22.900 0.011 40.407
295 3 14.852 0.073 51.844
296 3 24.719 4.857 41.971
297 3 25.986 9.307 50.326
298 3 14.234 9.612 47.127
299 3 17.284 3.863 51.249
300 3 20.346 7.853 48.076
301 57 13.000 13.000 0.000
302 57 19.500 19.500 0.000
303 40 16.250 16.250 3.250
304 40 22.750 22.750 9.750
305 8 15.600 13.000 0.000
306 8 23.400 13.000 0.000
307 8 13.000 15.600 0.000
308 8 13.000 23.400 0.000
309 3 20.910 19.681 6.230
310 3 14.848 19.675 3.221
311 3 15.196 17.820 11.343
312 3 23.445 13.745 12.508
313 3 14.724 15.560 12.199
314 3 16.172 16.729 2.000
315 3 23.184 16.058 0.393
316 57 13.000 13.000 13.000
317 57 19.500 19.500 13.000
318 40 16.250 16.250 16.250
319 40 22.750 22.750 22.750
320 8 15.600 13.000 13.000
321 8 23.400 13.000 13.000
322 8 13.000 15.600 13.000
323 8 13.000 23.400 13.000
324 3 14.136 16.419 18.394
325 3 13.876 16.238 25.483
326 3 24.884 20.875 25.443
327 3 16.781 24.694 19.576
328 3 23.581 24.098 14.574
329 3 22.022 18.559 21.401
330 3 13.793 22.889 18.690
331 57 13.000 13.000 26.000
332 57 19.500 19.500 26.000
333 40 16.250 16.250 29.250
334 40 22.750 22.750 35.750
335 8 15.600 13.000 26.000
336 8 23.400 13.000 26.000
337 8 13.000 15.600 26.000
338 8 13.000 23.400 26.000
339 3 16.498 14.652 36.513
340 3 14.172 17.796 32.670
341 3 23.100 24.869 31.148
342 3 13.017 25.579 37.324
343 3 16.999 25.767 31.795
344 3 14.581 14.682 34.331
345 3 23.354 17.524 28.598
346 57 13.000 13.000 39.000
347 57 19.500 19.500 39.000
348 40 16.250 16.250 42.250
349 40 22.750 22.750 48.750
350 8 15.600 13.000 39.000
351 8 23.400 13.000 39.000
352 8 13.000 15.600 39.000
353 8 13.000 23.400 39.000
354 3 13.808 18.051 47.246
355 3 21.532 13.155 51.018
356 3 22.083 13.175 41.822
357 3 14.337 17.900 39.544
358 3 17.916 14.276 39.021
359 3 24.645 18.693 44.956
360 3 22.757 20.680 46.247
361 57 13.000 26.000 0.000
362 57 19.500 32.500 0.000
363 40 16.250 29.250 3.250
364 40 22.750 35.750 9.750
365 8 15.600 26.000 0.000
366 8 23.400 26.000 0.000
367 8 13.000 28.600 0.000
368 8 13.000 36.400 0.000
369 3 20.262 36.918 7.389
370 3 19.721 36.477 0.133
371 3 25.395 36.224 7.457
372 3 15.110 37.442 4.278
373 3 21.346 27.920 0.826
374 3 17.453 26.561 5.842
375 3 19.021 35.250 2.892
376 57 13.000 26.000 13.000
377 57 19.500 32.500 13.000
378 40 16.250 29.250 16.250
379 40 22.750 35.750 22.750
380 8 15.600 26.000 13.000
381 8 23.400 26.000 13.000
382 8 13.000 28.600 13.000
383 8 13.000 36.400 13.000
384 3 15.266 29.337 23.370
385 3 25.696 31.683 19.271
386 3 13.943 27.366 24.022
387 3 14.210 38.255 21.039
388 3 25.646 34.996 25.780
389 3 13.420 34.123 18.885
390 3 13.236 38.761 14.605
391 57 13.000 26.000 26.000
392 57 19.500 32.500 26.000
393 40 16.250 29.250 29.250
394 40 22.750 35.750 35.750
395 8 15.600 26.000 26.000
396 8 23.400 26.000 26.000
397 8 13.000 28.600 26.000
398 8 13.000 36.400 26.000
399 3 16.030 32.789 31.919
400 3 16.919 35.868 34.396
401 3 20.467 27.423 31.992
402 3 16.800 29.113 38.601
403 3 25.558 30.800 33.328
404 3 15.811 35.330 29.217
405 3 19.687 37.001 29.821
406 57 13.000 26.000 39.000
407 57 19.500 32.500 39.000
408 40 16.250 29.250 42.250
409 40 22.750 35.750 48.750
410 8 15.600 26.000 39.000
411 8 23.400 26.000 39.000
412 8 13.000 28.600 39.000
413 8 13.000 36.400 39.000
414 3 25.939 34.072 51.382
415 3 23.282 27.333 40.333
416 3 25.200 33.747 48.007
417 3 20.067 27.823 47.338
418 3 16.926 34.913 51.793
419 3 22.544 33.397 47.540
420 3 21.355 36.795 49.920
421 57 13.000 39.000 0.000
422 57 19.500 45.500 0.000
423 40 16.250 42.250 3.250
424 40 22.750 48.750 9.750
425 8 15.600 39.000 0.000
426 8 23.400 39.000 0.000
427 8 13.000 41.600 0.000
428 8 13.000 49.400 0.000
429 3 24.847 42.691 8.316
430 3 25.952 50.402 9.550
431 3 14.164 39.695 1.100
432 3 15.285 42.445 9.986
433 3 23.687 46.424 10.240
434 3 23.099 43.959 5.034
435 3 13.607 45.623 5.937
436 57 13.000 39.000 13.000
437 57 19.500 45.500 13.000
438 40 16.250 42.250 16.250
439 40 22.750 48.750 22.750
440 8 15.600 39.000 13.000
441 8 23.400 39.000 13.000
442 8 13.000 41.600 13.000
443 8 13.000 49.400 13.000
444 3 16.961 50.551 21.493
445 3 25.188 49.415 17.068
446 3 20.503 40.995 16.915
447 3 19.070 49.582 17.731
448 3 18.350 45.521 14.153
449 3 15.835 51.314 20.895
450 3 17.593 44.454 22.096
451 57 13.000 39.000 26.000
452 57 19.500 45.500 26.000
453 40 16.250 42.250 29.250
454 40 22.750 48.750 35.750
455 8 15.600 39.000 26.000
456 8 23.400 39.000 26.000
457 8 13.000 41.600 26.000
458 8 13.000 49.400 26.000
459 3 14.587 42.299 33.837
460 3 18.788 50.410 31.291
461 3 18.187 41.963 26.637
462 3 16.219 48.056 36.846
463 3 22.962 45.745 34.183
464 3 25.630 49.964 36.816
465 3 15.391 41.254 26.081
466 57 13.000 39.000 39.000
467 57 19.500 45.500 39.000
468 40 16.250 42.250 42.250
469 40 22.750 48.750 48.750
470 8 15.600 39.000 39.000
471 8 23.400 39.000 39.000
472 8 13.000 41.600 39.000
473 8 13.000 49.400 39.000
474 3 15.911 46.379 43.503
475 3 20.877 51.123 41.553
476 3 23.036 48.323 45.226
477 3 13.406 41.783 49.301
478 3 18.944 47.729 45.295
479 3 19.699 42.504 51.685
480 3 20.665 39.009 43.275
481 57 26.000 0.000 0.000
482 57 32.500 6.500 0.000
483 40 29.250 3.250 3.250
484 40 35.750 9.750 9.750
485 8 28.600 0.000 0.000
486 8 36.400 0.000 0.000
487 8 26.000 2.600 0.000
488 8 26.000 10.400 0.000
489 3 32.567 1.802 3.634
490 3 35.773 12.682 8.587
491 3 35.767 4.117 1.865
492 3 32.302 7.406 0.015
493 3 35.835 0.079 0.121
494 3 33.433 6.671 2.339
495 3 27.217 12.261 6.808
496 57 26.000 0.000 13.000
497 57 32.500 6.500 13.000
498 40 29.250 3.250 16.250
499 40 35.750 9.750 22.750
500 8 28.600 0.000 13.000
501 8 36.400 0.000 13.000
502 8 26.000 2.600 13.000
503 8 26.000 10.400 13.000
504 3 37.457 3.577 22.892
505 3 29.738 6.549 19.549
506 3 36.497 12.620 24.780
507 3 31.019 5.368 23.900
508 3 26.988 10.993 17.764
509 3 38.587 5.587 13.452
510 3 30.775 6.766 23.994
511 57 26.000 0.000 26.000
512 57 32.500 6.500 26.000
513 40 29.250 3.250 29.250
514 40 35.750 9.750 35.750
515 8 28.600 0.000 26.000
516 8 36.400 0.000 26.000
517 8 26.000 2.600 26.000
518 8 26.000 10.400 26.000
519 3 31.908 5.523 32.250
520 3 28.270 11.640 30.795
521 3 34.535 12.004 38.555
522 3 30.982 12.666 30.374
523 3 26.156 5.546 33.501
524 3 27.440 2.866 31.305
525 3 34.208 9.670 29.881
526 57 26.000 0.000 39.000
527 57 32.500 6.500 39.000
528 40 29.250 3.250 42.250
529 40 35.750 9.750 48.750
530 8 28.600 0.000 39.000
531 8 36.400 0.000 39.000
532 8 26.000 2.600 39.000
533 8 26.000 10.400 39.000
534 3 33.199 12.065 41.111
535 3 29.289 12.205 48.271
536 3 29.905 9.242 46.834
537 3 34.236 12.623 42.832
538 3 31.945 5.919 43.682
539 3 38.240 4.886 48.989
540 3 32.709 10.117 40.742
541 57 26.000 13.000 0.000
542 57 32.500 19.500 0.000
543 40 29.250 16.250 3.250
544 40 35.750 22.750 9.750
545 8 28.600 13.000 0.000
546 8 36.400 13.000 0.000
547 8 26.000 15.600 0.000
548 8 26.000 23.400 0.000
549 3 30.304 21.777 5.572
550 3 33.974 23.712 0.658
551 3 27.275 23.443 7.017
552 3 26.223 20.846 9.968
553 3 32.188 16.577 8.424
554 3 28.569 17.556 8.696
555 3 27.924 14.760 2.124
556 57 26.000 13.000 13.000
557 57 32.500 19.500 13.000
558 40 29.250 16.250 16.250
559 40 35.750 22.750 22.750
560 8 28.600 13.000 13.000
561 8 36.400 13.000 13.000
562 8 26.000 15.600 13.000
563 8 26.000 23.400 13.000
564 3 33.121 18.124 20.372
565 3 33.817 21.292 19.635
566 3 38.716 18.629 13.350
567 3 30.976 21.398 20.695
568 3 38.259 20.411 22.485
569 3 31.880 24.967 17.209
570 3 28.708 19.103 22.859
571 57 26.000 13.000 26.000
572 57 32.500 19.500 26.000
573 40 29.250 16.250 29.250
574 40 35.750 22.750 35.750
575 8 28.600 13.000 26.000
576 8 36.400 13.000 26.000
577 8 26.000 15.600 26.000
578 8 26.000 23.400 26.000
579 3 27.483 22.495 27.500
580 3 28.977 22.868 34.951
581 3 26.149 21.788 34.891
582 3 26.828 16.216 31.419
583 3 32.231 20.989 26.575
584 3 28.391 18.289 34.452
585 3 26.852 13.959 28.749
586 57 26.000 13.000 39.000
587 57 32.500 19.500 39.000
588 40 29.250 16.250 42.250
589 40 35.750 22.750 48.750
590 8 28.600 13.000 39.000
591 8 36.400 13.000 39.000
592 8 26.000 15.600 39.000
593 8 26.000 23.400 39.000
594 3 34.799 23.607 47.373
595 3 30.735 17.222 45.855
596 3 35.080 25.040 44.944
597 3 34.162 22.015 48.893
598 3 30.654 16.101 41.685
599 3 30.388 21.484 41.637
600 3 38.169 14.116 45.379
601 57 26.000 26.000 0.000
602 57 32.500 32.500 0.000
603 40 29.250 29.250 3.250
604 40 35.750 35.750 9.750
605 8 28.600 26.000 0.000
606 8 36.400 26.000 0.000
607 8 26.000 28.600 0.000
608 8 26.000 36.400 0.000
609 3 35.668 28.077 8.829
610 3 28.135 32.670 8.213
611 3 37.351 34.390 8.574
612 3 27.703 34.464 6.187
613 3 31.222 38.639 7.435
614 3 27.171 26.012 10.610
615 3 27.434 27.788 7.201
616 57 26.000 26.000 13.000
617 57 32.500 32.500 13.000
618 40 29.250 29.250 16.250
619 40 35.750 35.750 22.750
620 8 28.600 26.000 13.000
621 8 36.400 26.000 13.000
622 8 26.000 28.600 13.000
623 8 26.000 36.400 13.000
624 3 26.894 33.757 15.228
625 3 34.935 33.576 20.761
626 3 29.278 31.294 13.205
627 3 30.787 32.233 17.365
628 3 34.880 36.864 22.098
629 3 34.750 38.539 18.944
630 3 37.786 27.441 20.905
631 57 26.000 26.000 26.000
632 57 32.500 32.500 26.000
633 40 29.250 29.250 29.250
634 40 35.750 35.750 35.750
635 8 28.600 26.000 26.000
636 8 36.400 26.000 26.000
637 8 26.000 28.600 26.000
638 8 26.000 36.400 26.000
639 3 37.033 30.816 33.274
640 3 29.042 27.681 28.811
641 3 35.402 34.402 32.102
642 3 31.097 31.546 28.972
643 3 27.644 31.098 28.051
644 3 26.269 30.214 36.846
645 3 28.302 37.269 37.223
646 57 26.000 26.000 39.000
647 57 32.500 32.500 39.000
648 40 29.250 29.250 42.250
649 40 35.750 35.750 48.750
650 8 28.600 26.000 39.000
651 8 36.400 26.000 39.000
652 8 26.000 28.600 39.000
653 8 26.000 36.400 39.000
654 3 30.128 31.631 44.772
655 3 37.319 27.799 39.640
656 3 34.358 27.324 41.477
657 3 32.937 28.457 46.609
658 3 31.690 31.623 42.997
659 3 37.673 26.779 40.945
660 3 29.110 27.206 46.231
661 57 26.000 39.000 0.000
662 57 32.500 45.500 0.000
663 40 29.250 42.250 3.250
664 40 35.750 48.750 9.750
665 8 28.600 39.000 0.000
666 8 36.400 39.000 0.000
667 8 26.000 41.600 0.000
668 8 26.000 49.400 0.000
669 3 29.882 48.125 12.048
670 3 38.953 42.185 10.334
671 3 38.795 40.596 10.907
672 3 33.378 40.120 0.378
673 3 35.579 44.956 1.535
674 3 27.668 49.559 9.407
675 3 37.010 43.629 1.806
676 57 26.000 39.000 13.000
677 57 32.500 45.500 13.000
678 40 29.250 42.250 16.250
679 40 35.750 48.750 22.750
680 8 28.600 39.000 13.000
681 8 36.400 39.000 13.000
682 8 26.000 41.600 13.000
683 8 26.000 49.400 13.000
684 3 28.808 40.872 15.500
685 3 34.850 41.159 22.658
686 3 33.859 42.147 23.862
687 3 32.482 40.275 19.494
688 3 36.678 51.078 14.160
689 3 30.770 40.872 19.018
690 3 35.641 43.030 24.754
691 57 26.000 39.000 26.000
692 57 32.500 45.500 26.000
693 40 29.250 42.250 29.250
694 40 35.750 48.750 35.750
695 8 28.600 39.000 26.000
696 8 36.400 39.000 26.000
697 8 26.000 41.600 26.000
698 8 26.000 49.400 26.000
699 3 38.793 41.464 31.164
700 3 27.684 40.247 34.343
701 3 31.446 48.923 38.488
702 3 32.780 39.102 28.846
703 3 38.186 42.548 38.810
704 3 34.820 50.406 33.317
705 3 33.750 46.005 28.070
706 57 26.000 39.000 39.000
707 57 32.500 45.500 39.000
708 40 29.250 42.250 42.250
709 40 35.750 48.750 48.750
710 8 28.600 39.000 39.000
711 8 36.400 39.000 39.000
712 8 26.000 41.600 39.000
713 8 26.000 49.400 39.000
714 3 35.519 48.439 43.449
715 3 30.817 48.997 50.966
716 3 33.470 51.051 42.313
717 3 34.194 44.206 49.575
718 3 31.346 50.536 41.121
719 3 34.822 48.811 51.297
720 3 38.981 49.786 40.946
721 57 39.000 0.000 0.000
722 57 45.500 6.500 0.000
723 40 42.250 3.250 3.250
724 40 48.750 9.750 9.750
725 8 41.600 0.000 0.000
726 8 49.400 0.000 0.000
727 8 39.000 2.600 0.000
728 8 39.000 10.400 0.000
729 3 48.137 7.394 2.564
730 3 48.947 4.887 6.351
731 3 44.898 1.399 9.467
732 3 45.115 8.809 2.111
733 3 40.797 6.544 1.161
734 3 46.680 2.988 6.783
735 3 44.969 6.648 5.274
736 57 39.000 0.000 13.000
737 57 45.500 6.500 13.000
738 40 42.250 3.250 16.250
739 40 48.750 9.750 22.750
740 8 41.600 0.000 13.000
741 8 49.400 0.000 13.000
742 8 39.000 2.600 13.000
743 8 39.000 10.400 13.000
744 3 41.915 9.676 22.716
745 3 49.121 8.822 17.788
746 3 51.541 8.378 20.569
747 3 40.742 7.073 20.688
748 3 41.953 7.359 15.649
749 3 50.158 11.141 15.215
750 3 43.070 0.228 21.087
751 57 39.000 0.000 26.000
752 57 45.500 6.500 26.000
753 40 42.250 3.250 29.250
754 40 48.750 9.750 35.750
755 8 41.600 0.000 26.000
756 8 49.400 0.000 26.000
757 8 39.000 2.600 26.000
758 8 39.000 10.400 26.000
759 3 48.047 3.157 31.867
760 3 47.796 10.398 38.699
761 3 50.263 5.739 31.648
762 3 41.890 2.837 33.026
763 3 49.632 1.672 34.506
764 3 40.084 10.631 30.591
765 3 41.252 5.466 34.021
766 57 39.000 0.000 39.000
767 57 45.500 6.500 39.000
768 40 42.250 3.250 42.250
769 40 48.750 9.750 48.750
770 8 41.600 0.000 39.000
771 8 49.400 0.000 39.000
772 8 39.000 2.600 39.000
773 8 39.000 10.400 39.000
774 3 47.698 10.647 47.000
775 3 49.728 0.236 49.049
776 3 39.331 4.841 41.725
777 3 42.393 12.356 46.611
778 3 50.761 4.853 46.982
779 3 42.846 10.493 43.484
780 3 50.008 0.222 47.709
781 57 39.000 13.000 0.000
782 57 45.500 19.500 0.000
783 40 42.250 16.250 3.250
784 40 48.750 22.750 9.750
785 8 41.600 13.000 0.000
786 8 49.400 13.000 0.000
787 8 39.000 15.600 0.000
788 8 39.000 23.400 0.000
789 3 41.395 25.420 1.125
790 3 47.777 18.226 0.908
791 3 43.155 22.872 8.494
792 3 41.278 13.932 11.797
793 3 48.407 24.464 5.369
794 3 42.314 20.077 9.993
795 3 49.786 20.481 0.178
796 57 39.000 13.000 13.000
797 57 45.500 19.500 13.000
798 40 42.250 16.250 16.250
799 40 48.750 22.750 22.750
800 8 41.600 13.000 13.000
801 8 49.400 13.000 13.000
802 8 39.000 15.600 13.000
803 8 39.000 23.400 13.000
804 3 47.404 16.826 19.927
805 3 41.516 14.707 14.143
806 3 42.646 18.670 21.893
807 3 39.315 18.846 15.451
808 3 44.863 20.929 18.093
809 3 49.840 18.074 24.171
810 3 39.030 14.370 24.170
811 57 39.000 13.000 26.000
812 57 45.500 19.500 26.000
813 40 42.250 16.250 29.250
814 40 48.750 22.750 35.750
815 8 41.600 13.000 26.000
816 8 49.400 13.000 26.000
817 8 39.000 15.600 26.000
818 8 39.000 23.400 26.000
819 3 49.958 15.107 38.630
820 3 40.211 19.232 32.107
821 3 39.795 15.409 26.639
822 3 51.117 22.944 26.884
823 3 42.778 17.111 36.150
824 3 39.691 22.478 36.240
825 3 51.301 22.265 30.979
826 57 39.000 13.000 39.000
827 57 45.500 19.500 39.000
828 40 42.250 16.250 42.250
829 40 48.750 22.750 48.750
830 8 41.600 13.000 39.000
831 8 49.400 13.000 39.000
832 8 39.000 15.600 39.000
833 8 39.000 23.400 39.000
834 3 50.579 17.459 41.580
835 3 43.239 23.422 39.101
836 3 51.971 24.593 51.212
837 3 51.316 15.123 48.826
838 3 48.716 15.244 43.311
839 3 46.578 24.998 41.398
840 3 46.828 23.225 46.324
841 57 39.000 26.000 0.000
842 57 45.500 32.500 0.000
843 40 42.250 29.250 3.250
844 40 48.750 35.750 9.750
845 8 41.600 26.000 0.000
846 8 49.400 26.000 0.000
847 8 39.000 28.600 0.000
848 8 39.000 36.400 0.000
849 3 41.375 30.334 4.365
850 3 48.343 27.833 8.879
851 3 41.170 35.643 0.522
852 3 51.857 35.822 10.632
853 3 42.298 37.235 11.079
854 3 45.756 28.592 5.217
855 3 41.502 37.724 11.947
856 57 39.000 26.000 13.000
857 57 45.500 32.500 13.000
858 40 42.250 29.250 16.250
859 40 48.750 35.750 22.750
860 8 41.600 26.000 13.000
861 8 49.400 26.000 13.000
862 8 39.000 28.600 13.000
863 8 39.000 36.400 13.000
864 3 39.718 37.387 15.795
865 3 47.064 37.244 21.495
866 3 51.057 33.958 15.467
867 3 44.059 38.166 14.094
868 3 40.973 33.935 21.814
869 3 41.536 29.248 18.850
870 3 48.177 31.918 14.792
871 57 39.000 26.000 26.000
872 57 45.500 32.500 26.000
873 40 42.250 29.250 29.250
874 40 48.750 35.750 35.750
875 8 41.600 26.000 26.000
876 8 49.400 26.000 26.000
877 8 39.000 28.600 26.000
878 8 39.000 36.400 26.000
879 3 45.554 28.350 29.799
880 3 48.730 27.308 33.387
881 3 46.001 33.329 34.565
882 3 45.652 37.100 37.004
883 3 51.177 29.690 31.371
884 3 42.510 29.475 38.620
885 3 46.685 33.988 29.570
886 57 39.000 26.000 39.000
887 57 45.500 32.500 39.000
888 40 42.250 29.250 42.250
889 40 48.750 35.750 48.750
890 8 41.600 26.000 39.000
891 8 49.400 26.000 39.000
892 8 39.000 28.600 39.000
893 8 39.000 36.400 39.000
894 3 50.817 27.667 47.608
895 3 50.896 28.990 48.998
896 3 49.985 38.461 40.750
897 3 50.977 27.001 40.590
898 3 49.480 27.623 48.928
899 3 44.502 32.990 47.543
900 3 48.111 35.536 45.934
901 57 39.000 39.000 0.000
902 57 45.500 45.500 0.000
903 40 42.250 42.250 3.250
904 40 48.750 48.750 9.750
905 8 41.600 39.000 0.000
906 8 49.400 39.000 0.000
907 8 39.000 41.600 0.000
908 8 39.000 49.400 0.000
909 3 41.542 41.733 12.239
910 3 46.351 51.619 1.433
911 3 46.481 47.364 8.132
912 3 41.444 46.996 9.000
913 3 46.026 48.327 4.794
914 3 39.654 43.905 12.109
915 3 40.183 40.203 9.129
916 57 39.000 39.000 13.000
917 57 45.500 45.500 13.000
918 40 42.250 42.250 16.250
919 40 48.750 48.750 22.750
920 8 41.600 39.000 13.000
921 8 49.400 39.000 13.000
922 8 39.000 41.600 13.000
923 8 39.000 49.400 13.000
924 3 45.605 50.186 13.817
925 3 47.551 50.202 16.563
926 3 49.224 47.089 22.988
927 3 41.188 46.934 17.051
928 3 47.069 51.396 15.970
929 3 47.228 39.438 20.394
930 3 40.101 39.468 17.426
931 57 39.000 39.000 26.000
932 57 45.500 45.500 26.000
933 40 42.250 42.250 29.250
934 40 48.750 48.750 35.750
935 8 41.600 39.000 26.000
936 8 49.400 39.000 26.000
937 8 39.000 41.600 26.000
938 8 39.000 49.400 26.000
939 3 50.887 51.023 30.801
940 3 42.494 40.721 34.960
941 3 49.340 47.721 34.729
942 3 49.003 50.779 36.850
943 3 51.065 46.136 37.702
944 3 45.158 50.376 26.317
945 3 39.969 48.985 38.337
946 57 39.000 39.000 39.000
947 57 45.500 45.500 39.000
948 40 42.250 42.250 42.250
949 40 48.750 48.750 48.750
950 8 41.600 39.000 39.000
951 8 49.400 39.000 39.000
952 8 39.000 41.600 39.000
953 8 39.000 49.400 39.000
954 3 40.999 42.158 41.113
955 3 42.523 51.317 46.305
956 3 48.688 39.650 50.736
957 3 40.956 44.130 48.160
958 3 40.320 50.025 50.269
959 3 44.420 46.559 43.064
960 3 48.272 44.494 45.952
