ITEM: TIMESTEP
0
ITEM: NUMBER OF ATOMS
960
ITEM: BOX BOUNDS pp pp pp
0.0 52.0
0.0 52.0
0.0 52.0
ITEM: ATOMS id type x y z
1 57 -0.0420 -0.0262 -0.0231
2 57 6.4676 6.4626 0.0421
3 40 3.2984 3.2331 3.2547
4 40 9.7019 9.7354 9.7744
5 8 2.5591 0.0426 0.0317
6 8 10.3634 -0.0288 0.0102
7 8 0.0494 2.6062 -0.0473
8 8 -0.0032 10.4423 -0.0249
9 3 5.6511 2.6797 11.2249
10 3 3.9423 7.1481 9.7590
11 3 8.6681 4.6661 2.1727
12 3 12.1440 1.1491 1.2033
13 3 2.1160 3.0276 9.6800
14 3 11.0957 12.3385 12.8097
15 3 2.3933 7.4564 4.1898
16 57 -0.0308 0.0153 12.9614
17 57 6.5462 6.5197 13.0381
18 40 3.2326 3.2440 16.2875
19 40 9.7259 9.7702 22.7653
20 8 2.6118 0.0344 13.0402
21 8 10.3671 0.0177 12.9524
22 8 0.0210 2.6079 12.9945
23 8 -0.0259 10.3700 12.9528
24 3 2.5401 3.7594 24.3974
25 3 12.7024 10.4802 16.0603
26 3 11.8255 10.4744 25.5899
27 3 11.5808 12.9216 25.3913
28 3 4.3291 7.8969 14.6209
29 3 10.3442 5.9232 17.6344
30 3 5.8954 7.4070 14.1784
31 57 -0.0456 0.0046 26.0299
32 57 6.4657 6.5064 26.0257
33 40 3.2598 3.2361 29.2032
34 40 9.7034 9.7879 35.7465
35 8 2.5581 -0.0067 25.9602
36 8 10.4130 0.0113 26.0274
37 8 0.0299 2.6309 25.9820
38 8 -0.0233 10.4175 26.0208
39 3 3.7462 3.1426 34.3312
40 3 0.7737 0.1077 36.8585
41 3 2.0723 5.5062 36.7273
42 3 12.8325 8.7766 37.0115
43 3 8.8296 10.3789 34.5989
44 3 10.5720 5.7132 37.0531
45 3 9.5796 5.8550 29.7321
46 57 0.0497 -0.0005 38.9526
47 57 6.5475 6.5227 38.9621
48 40 3.2110 3.2530 42.2801
49 40 9.7398 9.7361 48.7314
50 8 2.5575 -0.0115 38.9929
51 8 10.3767 -0.0034 38.9931
52 8 -0.0242 2.5586 39.0150
53 8 0.0058 10.3668 38.9822
54 3 7.1657 11.1186 51.4777
55 3 3.8370 12.3866 46.4529
56 3 1.0564 10.8363 39.7143
57 3 0.4190 12.1506 43.2885
58 3 3.5219 6.3978 42.1015
59 3 12.8248 7.0954 39.9346
60 3 4.3865 1.9313 41.1321
61 57 0.0048 13.0339 0.0485
62 57 6.5420 19.5257 -0.0474
63 40 3.2780 16.2207 3.2879
64 40 9.7739 22.7906 9.7753
65 8 2.5604 13.0039 0.0006
66 8 10.4139 13.0057 0.0029
67 8 -0.0446 15.6294 -0.0170
68 8 -0.0317 23.3813 0.0408
69 3 2.8732 14.7639 3.6463
70 3 11.3742 15.5975 7.0765
71 3 4.9903 19.2135 1.1724
72 3 5.5908 22.4026 4.9865
73 3 12.1262 20.8245 6.2520
74 3 4.5363 13.9091 12.4576
75 3 2.5205 19.0405 11.2155
76 57 -0.0208 13.0441 13.0341
77 57 6.5175 19.5451 12.9574
78 40 3.2179 16.2717 16.2162
79 40 9.7564 22.7745 22.7734
80 8 2.6020 12.9768 12.9686
81 8 10.4059 13.0062 12.9764
82 8 -0.0400 15.6189 12.9601
83 8 0.0171 23.3843 13.0450
84 3 10.9083 23.1194 19.3639
85 3 4.6027 16.7394 15.3296
86 3 9.5928 21.3922 13.6517
87 3 6.5427 18.6825 14.0879
88 3 3.4346 19.1296 20.7859
89 3 4.2369 24.1859 18.1635
90 3 4.5105 17.1742 25.0447
91 57 -0.0280 12.9742 25.9928
92 57 6.5392 19.4983 26.0171
93 40 3.2683 16.2522 29.2983
94 40 9.7790 22.7863 35.7964
95 8 2.5817 13.0428 25.9657
96 8 10.4190 13.0175 25.9748
97 8 -0.0424 15.5654 26.0297
98 8 -0.0178 23.3760 25.9828
99 3 9.5451 25.1882 27.3767
100 3 7.9826 24.9577 27.6766
101 3 11.4715 18.2207 27.6153
102 3 4.3556 17.3769 38.3951
103 3 3.2427 25.5622 27.1587
104 3 3.5952 24.9636 33.9700
105 3 4.9472 24.6330 27.9757
106 57 0.0202 13.0113 38.9754
107 57 6.5422 19.4891 39.0010
108 40 3.2628 16.2392 42.2572
109 40 9.7383 22.7448 48.7263
110 8 2.5952 12.9958 39.0085
111 8 10.4045 12.9946 39.0140
112 8 -0.0493 15.6193 38.9543
113 8 0.0067 23.4215 38.9805
114 3 1.4325 19.5079 42.0706
115 3 4.6052 20.2325 49.2565
116 3 3.5696 15.4164 49.4146
117 3 8.6137 16.5087 47.4550
118 3 4.5129 15.8082 46.2511
119 3 9.2898 14.3816 41.3515
120 3 7.3597 15.2582 46.6655
121 57 0.0435 25.9829 0.0411
122 57 6.4692 32.5229 -0.0111
123 40 3.2489 29.2305 3.2633
124 40 9.7030 35.7068 9.7446
125 8 2.6451 26.0286 -0.0025
126 8 10.4090 25.9651 -0.0434
127 8 0.0468 28.5813 0.0405
128 8 0.0409 36.4057 -0.0415
129 3 5.8262 37.8282 6.3398
130 3 10.1278 32.6407 12.0103
131 3 3.1352 29.3075 5.7301
132 3 12.8126 35.8454 2.3192
133 3 8.6316 38.8406 12.3399
134 3 3.6941 32.5666 1.9311
135 3 11.2747 35.2511 2.7094
136 57 -0.0226 26.0225 13.0242
137 57 6.5331 32.4980 12.9716
138 40 3.2442 29.2327 16.2900
139 40 9.7876 35.7844 22.7292
140 8 2.6402 26.0219 13.0352
141 8 10.4142 26.0206 12.9818
142 8 0.0073 28.5918 12.9619
143 8 -0.0431 36.4197 13.0494
144 3 5.3637 35.7201 23.6296
145 3 5.1750 31.1980 20.9725
146 3 6.4494 37.2122 23.6744
147 3 7.6486 38.1641 21.9946
148 3 7.0307 36.6667 16.8996
149 3 10.6233 37.2774 25.8405
150 3 10.5308 35.3860 19.1586
151 57 -0.0413 25.9648 25.9505
152 57 6.4958 32.4811 25.9736
153 40 3.2217 29.2075 29.2361
154 40 9.7558 35.7765 35.7985
155 8 2.6457 26.0073 26.0386
156 8 10.4325 26.0164 25.9684
157 8 0.0334 28.5927 26.0082
158 8 -0.0054 36.4134 25.9837
159 3 9.2273 30.4036 30.0726
160 3 5.7850 35.0162 34.3034
161 3 12.0710 32.1616 32.4267
162 3 2.2710 37.4059 29.8669
163 3 10.2069 31.9486 28.1307
164 3 5.4616 30.2995 28.5130
165 3 11.1827 30.8235 37.6625
166 57 -0.0484 26.0164 38.9973
167 57 6.5008 32.5053 38.9601
168 40 3.2085 29.2311 42.2428
169 40 9.7916 35.7349 48.7177
170 8 2.5642 25.9575 38.9541
171 8 10.3803 26.0180 38.9804
172 8 0.0281 28.5799 38.9714
173 8 -0.0148 36.4261 39.0384
174 3 11.1991 30.2292 51.4532
175 3 9.4814 26.6720 50.5071
176 3 7.0882 31.7113 45.4961
177 3 2.7465 31.0431 50.2215
178 3 5.0748 37.7207 47.7508
179 3 10.1687 35.5226 45.8129
180 3 4.9488 36.0528 49.0527
181 57 -0.0214 39.0399 -0.0281
182 57 6.5274 45.5139 -0.0388
183 40 3.2697 42.2319 3.2401
184 40 9.7668 48.7976 9.7662
185 8 2.6366 39.0212 0.0149
186 8 10.4040 39.0111 0.0090
187 8 0.0451 41.6349 -0.0054
188 8 -0.0152 49.4449 0.0104
189 3 11.2257 40.2817 1.3575
190 3 9.0532 49.8902 4.1114
191 3 1.1366 43.5894 0.9764
192 3 1.3073 40.4775 9.7768
193 3 11.1052 40.0811 12.0267
194 3 3.4211 50.8177 5.6698
195 3 1.5086 51.6839 7.3445
196 57 -0.0252 39.0256 13.0121
197 57 6.5378 45.5453 12.9974
198 40 3.2984 42.2593 16.2498
199 40 9.7214 48.7911 22.7377
200 8 2.5843 38.9971 13.0184
201 8 10.3590 39.0366 13.0499
202 8 -0.0436 41.5682 13.0192
203 8 -0.0470 49.4182 12.9553
204 3 4.5413 48.9058 13.4065
205 3 0.2672 46.7364 25.8418
206 3 5.8363 45.2135 13.4340
207 3 2.4332 51.0504 18.3315
208 3 1.6771 43.7093 21.3451
209 3 2.0057 44.4879 18.1790
210 3 6.7780 47.6048 24.5125
211 57 0.0301 39.0423 26.0297
212 57 6.4731 45.5330 25.9832
213 40 3.2198 42.2353 29.2299
214 40 9.7169 48.7704 35.7835
215 8 2.6392 38.9937 26.0432
216 8 10.4473 39.0319 25.9693
217 8 -0.0014 41.5846 25.9657
218 8 0.0306 49.3626 25.9633
219 3 6.8813 48.7170 30.4919
220 3 5.5852 48.3139 30.2848
221 3 4.3366 43.7622 28.7558
222 3 0.0807 42.0783 31.0724
223 3 5.3538 41.6472 32.2102
224 3 10.8329 51.9470 26.6877
225 3 12.6765 48.5285 26.6411
226 57 0.0419 38.9977 39.0316
227 57 6.4912 45.5195 39.0306
228 40 3.2802 42.2262 42.2195
229 40 9.7595 48.7375 48.7222
230 8 2.5922 38.9540 39.0117
231 8 10.3775 38.9867 38.9750
232 8 -0.0396 41.6426 38.9905
233 8 0.0176 49.3500 39.0021
234 3 3.6720 50.1361 39.1786
235 3 9.4762 42.1617 49.5630
236 3 8.7090 42.6226 41.1385
237 3 6.3551 47.8025 39.2747
238 3 4.5629 48.9032 49.2846
239 3 11.4989 51.1664 51.6665
240 3 5.0343 41.3122 45.2710
241 57 13.0141 0.0449 0.0018
242 57 19.4794 6.5432 0.0448
243 40 16.2992 3.2188 3.2082
244 40 22.7552 9.7458 9.7815
245 8 15.5532 -0.0153 0.0027
246 8 23.3914 0.0245 -0.0246
247 8 13.0302 2.6295 -0.0208
248 8 12.9765 10.4202 0.0204
249 3 19.4081 2.1096 1.0762
250 3 22.1184 2.7686 7.5949
251 3 15.0146 0.0542 3.7709
252 3 23.0333 4.1503 5.4533
253 3 13.1764 3.0017 3.1624
254 3 24.6723 8.6570 9.9116
255 3 20.5924 10.3011 9.2316
256 57 12.9580 0.0131 13.0283
257 57 19.5241 6.5039 12.9896
258 40 16.2961 3.2290 16.2642
259 40 22.7386 9.7805 22.7751
260 8 15.5880 -0.0260 13.0025
261 8 23.4407 0.0189 12.9781
262 8 13.0292 2.5753 12.9819
263 8 13.0383 10.4134 13.0104
264 3 16.5344 5.8818 23.4110
265 3 16.9029 12.5921 18.5036
266 3 18.2979 4.5736 24.1445
267 3 14.5498 3.6408 18.2624
268 3 20.0309 4.6661 17.0547
269 3 25.3949 7.2118 13.6302
270 3 14.0678 11.7919 14.8960
271 57 12.9827 -0.0069 25.9515
272 57 19.5315 6.5004 26.0164
273 40 16.2626 3.2895 29.2188
274 40 22.7168 9.7154 35.7264
275 8 15.5895 0.0370 26.0485
276 8 23.4414 -0.0296 25.9849
277 8 12.9710 2.5565 26.0143
278 8 13.0217 10.4099 26.0374
279 3 19.8572 3.0574 31.1872
280 3 16.0614 3.6307 26.6831
281 3 18.1760 5.7550 33.0876
282 3 19.0315 12.6336 37.3536
283 3 14.4198 10.5266 33.2689
284 3 25.9064 5.2151 32.3075
285 3 22.6251 12.0555 31.6629
286 57 12.9898 -0.0131 38.9825
287 57 19.5325 6.4800 38.9595
288 40 16.2303 3.2843 42.2415
289 40 22.7592 9.7825 48.7955
290 8 15.5746 0.0466 39.0029
291 8 23.3558 0.0181 39.0489
292 8 13.0022 2.5759 38.9583
293 8 13.0385 10.4285 39.0337
294 3 21.7512 12.5690 43.8038
295 3 13.5566 0.5592 45.2745
296 3 18.2945 12.8242 44.9674
297 3 17.5057 1.5403 49.4269
298 3 21.2860 1.2844 43.5962
299 3 15.7243 9.8048 46.2023
300 3 22.9429 10.6013 47.7203
301 57 13.0033 13.0262 0.0262
302 57 19.4519 19.4560 -0.0499
303 40 16.2156 16.2956 3.2818
304 40 22.7848 22.7713 9.7579
305 8 15.5917 13.0285 0.0350
306 8 23.4170 13.0009 0.0278
307 8 12.9613 15.5635 0.0202
308 8 12.9661 23.4452 -0.0194
309 3 18.4705 19.6965 7.7548
310 3 13.3762 23.0214 8.7703
311 3 21.7729 13.1285 5.2294
312 3 21.8374 14.5485 8.7039
313 3 14.7424 23.3070 2.7891
314 3 15.2202 13.0518 3.5917
315 3 24.6631 23.1548 1.8684
316 57 12.9750 13.0084 13.0315
317 57 19.4915 19.4698 13.0231
318 40 16.2159 16.2231 16.2910
319 40 22.7935 22.7513 22.7669
320 8 15.5706 13.0268 13.0158
321 8 23.3703 12.9516 13.0205
322 8 13.0143 15.5799 13.0347
323 8 12.9977 23.4314 13.0233
324 3 24.1931 16.9320 24.0789
325 3 13.0666 18.3754 23.3901
326 3 24.0588 18.5394 20.5035
327 3 16.5906 24.2982 16.5313
328 3 18.0578 18.5061 13.3312
329 3 14.6683 17.9015 23.1595
330 3 16.2570 23.4079 16.8601
331 57 12.9597 13.0070 25.9937
332 57 19.4655 19.5317 26.0239
333 40 16.2605 16.2914 29.2084
334 40 22.7718 22.7891 35.7866
335 8 15.6437 13.0207 26.0159
336 8 23.4227 12.9894 25.9962
337 8 13.0175 15.6286 26.0295
338 8 12.9714 23.3936 26.0245
339 3 16.2283 22.7492 30.5079
340 3 19.0035 14.2223 34.4262
341 3 24.2068 20.4536 35.2972
342 3 25.0506 19.5597 36.7481
343 3 20.9747 14.7600 35.1231
344 3 25.8697 18.1498 32.9252
345 3 22.3403 19.4572 37.9640
346 57 13.0229 12.9728 39.0334
347 57 19.5418 19.5011 39.0020
348 40 16.2063 16.2350 42.2630
349 40 22.7137 22.7384 48.7390
350 8 15.5932 12.9960 39.0489
351 8 23.3744 13.0221 38.9570
352 8 13.0142 15.5979 38.9791
353 8 12.9513 23.4483 38.9865
354 3 25.6696 23.2008 43.8730
355 3 19.2801 13.8716 44.3421
356 3 21.6327 18.2237 50.4789
357 3 23.3067 23.4129 51.5717
358 3 17.8191 21.0946 42.1604
359 3 14.2814 20.4599 42.6129
360 3 16.5467 13.4155 43.9269
361 57 13.0343 25.9955 -0.0425
362 57 19.4932 32.4628 -0.0492
363 40 16.2258 29.2932 3.2141
364 40 22.7717 35.7819 9.7267
365 8 15.5796 26.0209 0.0358
366 8 23.4017 26.0041 -0.0382
367 8 12.9654 28.6394 -0.0022
368 8 12.9548 36.4337 0.0300
369 3 17.5600 34.5997 5.8203
370 3 14.4472 31.6636 10.1179
371 3 14.0683 32.9054 4.8675
372 3 16.1810 31.1280 7.3156
373 3 25.5083 27.6942 7.9052
374 3 15.3953 37.7006 9.3650
375 3 17.8660 37.2981 5.6544
376 57 12.9685 25.9830 13.0030
377 57 19.5469 32.4896 12.9507
378 40 16.2668 29.2573 16.2789
379 40 22.7275 35.7337 22.7144
380 8 15.6396 26.0105 12.9776
381 8 23.4265 26.0320 12.9571
382 8 12.9927 28.6299 13.0334
383 8 13.0407 36.4116 12.9601
384 3 17.0577 27.4189 18.3319
385 3 23.6783 27.5588 21.4925
386 3 25.7322 29.8239 13.1799
387 3 18.0114 37.9661 22.5391
388 3 18.6010 36.6554 19.2141
389 3 24.3497 35.2136 20.2503
390 3 18.3232 34.3548 20.9345
391 57 12.9948 25.9614 26.0290
392 57 19.5099 32.5335 26.0186
393 40 16.2261 29.2388 29.2832
394 40 22.7297 35.7385 35.7993
395 8 15.5856 25.9990 25.9949
396 8 23.3738 25.9577 25.9738
397 8 12.9674 28.5671 26.0341
398 8 13.0038 36.4195 25.9965
399 3 17.3087 38.6123 33.6737
400 3 14.0568 28.0038 36.3314
401 3 15.9089 38.5658 37.6544
402 3 22.3042 33.8460 30.0451
403 3 19.3459 27.6637 34.0420
404 3 19.4123 26.5724 37.4430
405 3 16.9464 34.6139 30.9612
406 57 13.0168 26.0351 39.0294
407 57 19.5210 32.5359 38.9602
408 40 16.2768 29.2295 42.2870
409 40 22.7333 35.7766 48.7041
410 8 15.5802 25.9838 39.0247
411 8 23.3524 26.0037 38.9564
412 8 13.0340 28.6414 39.0048
413 8 12.9518 36.4401 38.9927
414 3 22.2820 27.5670 51.5469
415 3 24.7089 31.3847 49.2429
416 3 15.5405 30.4205 45.3358
417 3 20.9798 26.6932 51.1135
418 3 13.5997 34.9012 49.2996
419 3 25.1038 34.4106 39.1848
420 3 20.7682 34.9575 41.4023
421 57 12.9701 39.0169 -0.0399
422 57 19.5097 45.4893 0.0236
423 40 16.2942 42.2971 3.2291
424 40 22.7599 48.7374 9.7636
425 8 15.5859 39.0160 -0.0344
426 8 23.4005 38.9532 0.0021
427 8 13.0059 41.5634 -0.0274
428 8 12.9604 49.3932 -0.0037
429 3 19.0999 46.5787 1.3726
430 3 24.8423 39.8935 7.7918
431 3 17.4895 43.4265 4.0969
432 3 25.2171 45.8619 5.9581
433 3 20.9472 48.2727 6.5217
434 3 16.7731 42.8501 11.3158
435 3 13.2874 50.3333 0.6446
436 57 12.9519 39.0304 13.0396
437 57 19.5495 45.5262 13.0180
438 40 16.2153 42.2057 16.2159
439 40 22.7334 48.7620 22.7793
440 8 15.6011 39.0038 12.9825
441 8 23.4163 38.9963 13.0478
442 8 12.9842 41.5647 13.0188
443 8 13.0022 49.3953 12.9840
444 3 15.1966 46.3869 16.6447
445 3 23.7119 50.4170 20.0891
446 3 17.2120 42.3941 22.0418
447 3 20.0159 47.6966 21.6473
448 3 15.4053 46.6339 20.1210
449 3 15.0560 50.4699 17.9497
450 3 23.9597 49.9272 25.9026
451 57 13.0103 38.9563 25.9936
452 57 19.5087 45.5416 25.9804
453 40 16.2263 42.2453 29.2320
454 40 22.7834 48.7612 35.7857
455 8 15.5881 38.9539 26.0449
456 8 23.4327 39.0395 25.9702
457 8 12.9838 41.6241 26.0441
458 8 13.0265 49.4390 25.9698
459 3 17.1764 39.5851 36.6620
460 3 24.7585 44.3135 33.2485
461 3 18.6587 51.0235 37.8335
462 3 13.3165 40.4429 37.7448
463 3 22.8101 49.4173 36.7162
464 3 25.3727 47.4885 34.9958
465 3 24.4100 49.8271 38.7075
466 57 12.9830 39.0065 39.0307
467 57 19.4891 45.4506 38.9624
468 40 16.2495 42.2463 42.2374
469 40 22.7526 48.7170 48.7216
470 8 15.5595 38.9840 38.9741
471 8 23.3543 38.9659 39.0071
472 8 12.9882 41.6258 39.0160
473 8 12.9724 49.4284 39.0127
474 3 25.1533 48.6303 44.1820
475 3 13.8158 39.7717 41.9124
476 3 19.8181 50.6407 46.2759
477 3 16.0974 48.9054 45.5405
478 3 19.4359 46.8103 49.4872
479 3 22.9323 48.6270 44.7355
480 3 25.2893 49.6966 50.8149
481 57 25.9699 0.0295 -0.0123
482 57 32.4753 6.5415 -0.0097
483 40 29.2034 3.2382 3.2473
484 40 35.7341 9.7695 9.7728
485 8 28.6384 0.0193 -0.0458
486 8 36.4334 -0.0462 -0.0011
487 8 26.0318 2.5751 -0.0307
488 8 25.9722 10.3777 -0.0214
489 3 36.9557 10.2038 1.5580
490 3 29.2663 0.9079 5.1130
491 3 26.7631 4.6679 10.8316
492 3 26.7782 7.6738 3.3610
493 3 35.8552 8.9766 9.2666
494 3 33.5750 8.7049 2.6325
495 3 29.9650 7.0030 2.0503
496 57 26.0155 0.0284 13.0215
497 57 32.5344 6.4705 13.0452
498 40 29.2906 3.2299 16.2738
499 40 35.7734 9.7527 22.7847
500 8 28.6319 -0.0391 12.9558
501 8 36.3671 0.0318 13.0084
502 8 26.0023 2.6150 13.0318
503 8 25.9706 10.3671 13.0441
504 3 30.7852 10.5151 17.0903
505 3 27.6720 10.7084 24.5679
506 3 36.1743 12.4122 25.6357
507 3 27.1101 5.8142 14.3928
508 3 35.7142 6.1186 22.7725
509 3 28.9623 12.8712 19.9750
510 3 29.7294 4.6692 23.9289
511 57 25.9868 0.0382 26.0239
512 57 32.4914 6.4923 26.0180
513 40 29.2602 3.2555 29.2672
514 40 35.7258 9.7507 35.7049
515 8 28.6389 -0.0365 26.0081
516 8 36.3943 0.0189 26.0423
517 8 26.0040 2.6422 26.0474
518 8 25.9689 10.4417 25.9601
519 3 38.7374 9.3639 35.0311
520 3 35.8412 9.7860 26.5216
521 3 38.7585 10.0176 34.9009
522 3 32.4601 0.1797 29.3137
523 3 32.3949 5.2145 27.5306
524 3 36.3889 1.0735 31.3099
525 3 35.2335 0.0977 28.1651
526 57 26.0272 -0.0199 39.0316
527 57 32.4861 6.4720 38.9542
528 40 29.2119 3.2500 42.2102
529 40 35.7158 9.7021 48.7315
530 8 28.5687 0.0290 39.0278
531 8 36.4374 0.0305 38.9718
532 8 25.9555 2.6429 38.9591
533 8 26.0270 10.3677 39.0233
534 3 31.0974 0.3748 50.0652
535 3 33.8779 7.8782 40.6883
536 3 28.5629 5.0772 42.4690
537 3 35.7008 0.3060 51.9531
538 3 38.7301 3.5201 47.4908
539 3 32.9387 0.2311 48.5900
540 3 35.9666 4.3879 43.4760
541 57 25.9959 12.9572 0.0385
542 57 32.4512 19.5464 0.0373
543 40 29.2041 16.2392 3.2336
544 40 35.7126 22.7804 9.7187
545 8 28.5759 13.0043 -0.0294
546 8 36.4027 12.9535 -0.0023
547 8 25.9524 15.5535 0.0199
548 8 26.0498 23.4129 0.0158
549 3 37.5328 20.5891 3.3109
550 3 37.6333 13.6457 11.0696
551 3 30.8164 21.7590 11.1735
552 3 37.4879 23.8464 10.2936
553 3 36.0032 15.9140 9.4289
554 3 32.7333 18.0423 11.1288
555 3 26.5278 16.5083 6.8658
556 57 26.0450 13.0445 12.9969
557 57 32.4510 19.4820 13.0092
558 40 29.2175 16.2788 16.2365
559 40 35.7495 22.7730 22.7558
560 8 28.6288 13.0224 13.0474
561 8 36.3943 12.9579 13.0278
562 8 26.0496 15.5587 12.9600
563 8 25.9601 23.3547 12.9666
564 3 35.3086 15.8705 24.9247
565 3 28.5950 18.0710 14.6519
566 3 33.6617 15.1167 24.7121
567 3 28.9000 16.1193 25.1891
568 3 36.9142 20.2696 25.4257
569 3 37.7532 18.2796 14.3429
570 3 30.8497 23.6657 17.9157
571 57 25.9584 12.9598 26.0373
572 57 32.4619 19.4956 26.0151
573 40 29.2318 16.2897 29.2342
574 40 35.7780 22.7510 35.7083
575 8 28.5858 13.0180 26.0310
576 8 36.3896 13.0152 25.9916
577 8 25.9504 15.6481 26.0264
578 8 25.9696 23.4450 25.9887
579 3 37.8683 24.7430 27.5048
580 3 30.4207 18.1940 30.3159
581 3 28.4142 13.6451 30.4395
582 3 31.5932 19.5524 34.9512
583 3 32.9157 22.2221 26.1985
584 3 32.7365 23.1107 32.6290
585 3 37.1767 14.1374 37.1334
586 57 25.9526 13.0478 39.0069
587 57 32.5011 19.4653 38.9701
588 40 29.2059 16.2665 42.2743
589 40 35.7169 22.7662 48.7148
590 8 28.5541 13.0001 39.0112
591 8 36.4370 12.9847 38.9803
592 8 25.9681 15.5810 38.9725
593 8 25.9797 23.3547 39.0027
594 3 37.9021 18.9445 50.3822
595 3 27.4873 13.8727 40.3807
596 3 28.5550 22.0211 42.2480
597 3 30.5346 24.3466 48.4105
598 3 26.1393 14.2637 41.5510
599 3 31.2210 24.9063 39.4209
600 3 37.4237 23.8018 48.7957
601 57 26.0233 25.9502 -0.0493
602 57 32.4525 32.4724 0.0094
603 40 29.2118 29.2138 3.2805
604 40 35.7971 35.7915 9.7274
605 8 28.6167 26.0144 0.0454
606 8 36.3703 25.9740 -0.0091
607 8 26.0332 28.6292 -0.0222
608 8 26.0297 36.4007 -0.0227
609 3 27.0291 34.2070 5.2835
610 3 30.4489 35.8477 11.0808
611 3 37.8218 33.0469 7.1977
612 3 34.3199 29.8216 0.2225
613 3 37.5985 37.1247 1.9685
614 3 31.4576 35.3591 0.3486
615 3 26.0561 33.4253 5.1396
616 57 26.0445 25.9545 12.9575
617 57 32.5197 32.5250 13.0392
618 40 29.2274 29.2970 16.2818
619 40 35.7409 35.7506 22.7244
620 8 28.6373 25.9598 13.0104
621 8 36.3558 25.9925 12.9941
622 8 26.0423 28.5516 13.0403
623 8 25.9516 36.4159 12.9866
624 3 31.7093 26.8317 20.8363
625 3 37.3795 27.7888 21.8195
626 3 36.7346 26.2333 22.3071
627 3 33.3773 34.7985 18.4862
628 3 26.4959 35.3930 18.3734
629 3 28.2737 32.4454 19.8497
630 3 38.0375 34.4738 19.4161
631 57 25.9696 26.0132 25.9903
632 57 32.4801 32.5438 26.0440
633 40 29.2467 29.2458 29.2659
634 40 35.7805 35.7908 35.7115
635 8 28.5843 25.9771 26.0375
636 8 36.3917 26.0486 25.9742
637 8 26.0131 28.6127 25.9954
638 8 25.9994 36.4072 26.0416
639 3 33.3294 29.6160 27.7928
640 3 26.8100 30.0784 29.5489
641 3 31.5243 33.5315 33.4731
642 3 27.8878 28.8571 29.5591
643 3 26.7399 38.1638 38.7213
644 3 38.3864 35.8057 32.7685
645 3 36.0849 37.7030 31.8621
646 57 26.0324 25.9994 38.9610
647 57 32.4735 32.5426 38.9737
648 40 29.2099 29.2233 42.2290
649 40 35.7152 35.7505 48.7705
650 8 28.6134 25.9905 39.0089
651 8 36.3850 25.9832 38.9760
652 8 26.0477 28.5833 39.0387
653 8 25.9826 36.3656 39.0000
654 3 28.8540 30.8131 48.2167
655 3 32.5755 30.4360 44.8119
656 3 37.8222 38.4059 39.6644
657 3 35.5690 28.0243 39.8827
658 3 27.4000 35.6104 47.9554
659 3 38.9098 37.2452 44.4506
660 3 35.9444 32.2668 48.3216
661 57 25.9644 38.9667 -0.0294
662 57 32.5168 45.4861 -0.0295
663 40 29.2073 42.2077 3.2812
664 40 35.7629 48.7084 9.7871
665 8 28.5578 38.9740 -0.0038
666 8 36.3501 38.9755 -0.0279
667 8 25.9692 41.5583 0.0412
668 8 25.9552 49.3708 -0.0444
669 3 28.9981 49.5152 9.1449
670 3 33.2041 47.3623 6.5341
671 3 26.3925 51.2964 2.1927
672 3 37.5996 49.5275 2.2169
673 3 27.0838 45.6353 12.5945
674 3 27.3033 48.2711 6.1304
675 3 27.2568 42.8424 12.9280
676 57 25.9694 39.0413 13.0014
677 57 32.4965 45.4948 13.0377
678 40 29.2133 42.2945 16.2736
679 40 35.7428 48.7663 22.7080
680 8 28.5760 39.0400 12.9634
681 8 36.4041 38.9509 12.9949
682 8 26.0426 41.6484 12.9510
683 8 25.9852 49.4357 12.9774
684 3 29.4943 40.3649 25.6458
685 3 28.9747 45.9747 24.9415
686 3 38.9618 48.4298 16.1113
687 3 33.9179 46.9642 22.0519
688 3 28.1599 45.2742 23.8010
689 3 32.9494 45.4880 14.3773
690 3 36.4815 39.9070 24.7130
691 57 26.0144 39.0344 25.9964
692 57 32.5012 45.4727 25.9716
693 40 29.2509 42.2301 29.2971
694 40 35.7463 48.7129 35.7272
695 8 28.6311 38.9699 25.9628
696 8 36.4124 38.9517 25.9588
697 8 25.9537 41.5590 26.0154
698 8 25.9588 49.3793 25.9626
699 3 34.4580 51.8537 37.2224
700 3 32.3020 44.6782 38.7716
701 3 35.8379 39.7092 28.8415
702 3 27.9723 49.9052 33.8889
703 3 31.2373 41.4820 32.2921
704 3 29.2870 48.8353 29.2272
705 3 33.0871 45.0170 28.2553
706 57 25.9509 39.0344 38.9502
707 57 32.5323 45.5234 38.9856
708 40 29.2439 42.2157 42.2279
709 40 35.7851 48.7943 48.7766
710 8 28.6213 38.9547 39.0244
711 8 36.4407 38.9819 39.0418
712 8 25.9747 41.5839 39.0499
713 8 26.0215 49.3823 38.9885
714 3 35.6131 39.8715 41.7254
715 3 29.5307 39.7704 43.6523
716 3 34.2068 49.0148 48.2719
717 3 36.5994 42.8365 44.4621
718 3 38.0758 43.9616 50.4774
719 3 38.4904 47.8034 46.9914
720 3 34.5530 47.3813 48.5007
721 57 39.0492 0.0156 0.0272
722 57 45.5231 6.5385 0.0058
723 40 42.2776 3.2404 3.2383
724 40 48.7264 9.7388 9.7456
725 8 41.6397 0.0253 0.0128
726 8 49.4493 -0.0069 0.0349
727 8 38.9583 2.5760 0.0404
728 8 38.9892 10.3587 -0.0372
729 3 40.2032 3.5669 5.6258
730 3 41.1399 1.7687 2.3928
731 3 48.6143 3.5841 12.0008
732 3 46.2210 8.3684 2.8195
733 3 46.0153 9.9351 3.6170
734 3 48.4608 10.3121 10.8127
735 3 40.9327 0.8628 12.2147
736 57 38.9560 -0.0278 13.0056
737 57 45.4605 6.4801 12.9539
738 40 42.2608 3.2076 16.2089
739 40 48.7303 9.7500 22.7392
740 8 41.5641 -0.0439 13.0424
741 8 49.3660 -0.0114 13.0319
742 8 39.0179 2.6035 13.0111
743 8 39.0490 10.4185 12.9578
744 3 39.8858 9.8372 23.3932
745 3 48.8061 1.0834 25.2112
746 3 45.8196 8.4463 16.1526
747 3 48.2535 6.2713 24.7263
748 3 50.1553 5.3894 13.9711
749 3 40.4331 6.6598 14.0554
750 3 51.3016 6.9041 21.3581
751 57 38.9934 0.0353 26.0062
752 57 45.5400 6.5003 25.9517
753 40 42.2749 3.2230 29.2140
754 40 48.7955 9.7176 35.7762
755 8 41.5924 -0.0326 26.0370
756 8 49.3833 0.0187 26.0000
757 8 39.0440 2.5726 26.0292
758 8 38.9995 10.3582 25.9666
759 3 42.5353 8.8729 32.5795
760 3 42.7430 11.6841 26.3926
761 3 48.9314 10.8109 32.8020
762 3 49.0614 9.7150 27.4230
763 3 46.7269 6.2317 26.8877
764 3 46.3070 4.3454 35.4470
765 3 51.2819 8.3762 34.6612
766 57 39.0259 0.0253 38.9859
767 57 45.5475 6.5232 38.9919
768 40 42.2131 3.2730 42.2652
769 40 48.7032 9.7605 48.7473
770 8 41.5591 -0.0244 39.0251
771 8 49.3524 0.0063 38.9778
772 8 39.0143 2.6146 38.9504
773 8 38.9784 10.4233 38.9961
774 3 42.3974 12.5633 41.8735
775 3 46.7160 5.7641 45.7991
776 3 39.3637 7.1100 45.6563
777 3 42.2897 4.3150 44.7590
778 3 48.4455 3.4838 44.4470
779 3 48.3216 8.9388 42.2509
780 3 52.0062 11.0244 43.0911
781 57 38.9720 13.0406 -0.0006
782 57 45.4699 19.4719 -0.0002
783 40 42.2384 16.2571 3.2017
784 40 48.7462 22.7041 9.7548
785 8 41.6122 12.9805 -0.0445
786 8 49.3526 12.9796 -0.0085
787 8 39.0113 15.6061 0.0386
788 8 39.0237 23.3892 -0.0451
789 3 43.0744 16.2643 6.5219
790 3 45.7701 13.3705 7.5606
791 3 47.9252 21.5491 5.3954
792 3 42.3118 17.2942 9.0284
793 3 46.9346 24.8010 2.3986
794 3 51.3416 20.9379 9.9392
795 3 49.9625 21.6740 12.2522
796 57 39.0486 12.9511 13.0273
797 57 45.5476 19.4715 13.0266
798 40 42.2936 16.2222 16.2711
799 40 48.7457 22.7368 22.7747
800 8 41.6207 13.0034 12.9769
801 8 49.3744 13.0004 13.0237
802 8 39.0470 15.6472 12.9679
803 8 38.9964 23.3733 13.0493
804 3 50.0270 20.0232 25.9335
805 3 45.5244 23.4756 21.7365
806 3 41.8621 17.1478 20.9751
807 3 46.2713 22.7493 18.6076
808 3 51.6296 23.2044 16.0587
809 3 42.7634 19.1178 17.7722
810 3 46.4997 18.3540 22.5937
811 57 38.9542 12.9919 25.9596
812 57 45.4605 19.5267 25.9599
813 40 42.2393 16.2527 29.2545
814 40 48.7956 22.7377 35.7432
815 8 41.5956 13.0450 25.9740
816 8 49.4090 12.9691 25.9780
817 8 39.0312 15.6035 25.9587
818 8 39.0268 23.3582 25.9779
819 3 43.9442 25.6096 37.6375
820 3 47.6947 20.6970 32.4685
821 3 47.8809 23.5725 28.1589
822 3 48.8704 19.3628 30.5841
823 3 42.8211 16.8291 30.3123
824 3 41.0246 24.4507 37.3118
825 3 48.6965 20.8142 38.8248
826 57 38.9601 13.0472 39.0102
827 57 45.4964 19.4929 38.9851
828 40 42.2494 16.2471 42.2107
829 40 48.7574 22.7201 48.7299
830 8 41.6310 13.0240 38.9511
831 8 49.4333 12.9913 38.9696
832 8 39.0326 15.6245 38.9995
833 8 38.9567 23.4099 38.9733
834 3 44.7757 16.0025 49.7371
835 3 51.8144 15.7197 39.9993
836 3 45.2544 23.0037 50.6387
837 3 51.4283 22.6669 51.8124
838 3 40.0866 18.3673 40.0516
839 3 51.7902 25.7191 39.2318
840 3 44.0242 20.9727 46.5623
841 57 38.9842 25.9728 0.0102
842 57 45.4515 32.4578 0.0243
843 40 42.2593 29.2080 3.2327
844 40 48.7393 35.7893 9.7709
845 8 41.5955 26.0188 -0.0358
846 8 49.3692 26.0204 -0.0433
847 8 38.9817 28.6465 -0.0139
848 8 39.0260 36.3810 -0.0312
849 3 40.9303 37.6821 10.0024
850 3 43.7622 33.7652 5.1813
851 3 50.4855 27.4673 3.6869
852 3 48.1188 38.0969 8.7965
853 3 51.6191 33.8670 12.5825
854 3 47.6339 33.9842 3.7439
855 3 51.2951 37.1448 8.4769
856 57 39.0419 25.9586 12.9837
857 57 45.4807 32.4820 13.0313
858 40 42.2216 29.2932 16.2358
859 40 48.7363 35.7296 22.7859
860 8 41.6225 25.9851 12.9768
861 8 49.3826 26.0045 13.0427
862 8 39.0283 28.5751 13.0232
863 8 39.0488 36.3674 13.0326
864 3 42.8321 28.0208 14.0452
865 3 50.1345 38.6998 16.5272
866 3 46.7822 35.8972 13.4170
867 3 45.7148 30.4090 23.6552
868 3 47.2599 28.1198 25.6218
869 3 48.7012 38.4487 13.5115
870 3 51.5987 29.5036 19.4141
871 57 39.0203 25.9685 25.9861
872 57 45.5419 32.4523 25.9882
873 40 42.2876 29.2150 29.2326
874 40 48.7207 35.7006 35.7391
875 8 41.5847 25.9723 26.0372
876 8 49.4262 25.9776 25.9891
877 8 39.0060 28.6471 26.0250
878 8 38.9602 36.3626 26.0157
879 3 40.2414 29.8885 28.1393
880 3 49.0527 34.7282 26.0431
881 3 47.3557 37.3086 27.5874
882 3 50.7789 33.8992 31.6857
883 3 47.2265 26.3187 30.2100
884 3 48.7683 33.3301 28.3759
885 3 45.7078 38.2156 36.8484
886 57 38.9828 26.0292 38.9616
887 57 45.4767 32.5146 38.9952
888 40 42.2083 29.2032 42.2696
889 40 48.7675 35.7245 48.7531
890 8 41.6327 26.0386 38.9514
891 8 49.4134 25.9643 38.9657
892 8 38.9698 28.6217 39.0117
893 8 39.0239 36.4500 39.0096
894 3 42.1049 35.9152 48.7508
895 3 42.8313 26.2390 44.0773
896 3 46.2298 31.8559 43.1450
897 3 41.6548 35.4001 42.1611
898 3 51.9320 34.8483 42.7728
899 3 42.3902 26.3784 46.9696
900 3 39.1146 29.5700 48.5483
901 57 39.0355 39.0151 0.0249
902 57 45.4863 45.4656 0.0439
903 40 42.2996 42.2546 3.2088
904 40 48.7397 48.7853 9.7890
905 8 41.5828 38.9618 -0.0262
906 8 49.4133 39.0041 -0.0035
907 8 39.0218 41.6004 -0.0490
908 8 39.0479 49.4390 0.0230
909 3 48.9379 50.0827 2.4672
910 3 46.2919 41.3794 9.2356
911 3 41.4569 48.1690 7.7917
912 3 45.0189 48.4053 4.3042
913 3 46.7597 39.2840 12.8141
914 3 48.6853 44.2719 9.3545
915 3 42.9311 50.3452 11.1579
916 57 38.9670 39.0367 13.0431
917 57 45.4647 45.4614 12.9807
918 40 42.2780 42.2742 16.2520
919 40 48.7934 48.7151 22.7153
920 8 41.6365 38.9677 13.0333
921 8 49.3518 39.0220 13.0180
922 8 38.9720 41.6452 12.9959
923 8 38.9596 49.4363 13.0390
924 3 48.2132 45.8430 21.2504
925 3 42.1242 39.6126 21.8422
926 3 45.0992 49.3903 17.5694
927 3 40.5043 42.5205 19.1608
928 3 46.7589 48.9540 24.8008
929 3 47.8422 40.5293 24.4791
930 3 49.0727 40.4281 14.0519
931 57 39.0383 38.9852 26.0216
932 57 45.5387 45.4850 26.0359
933 40 42.2242 42.2702 29.2556
934 40 48.7989 48.7502 35.7786
935 8 41.5803 39.0283 25.9586
936 8 49.3553 38.9693 25.9633
937 8 39.0329 41.6239 25.9529
938 8 39.0429 49.3839 25.9874
939 3 49.7166 42.7241 37.5580
940 3 51.4003 40.9862 35.9513
941 3 48.5662 45.4624 36.1078
942 3 51.3451 49.3991 31.8528
943 3 42.2146 40.3606 36.4893
944 3 49.6281 39.6979 34.1708
945 3 41.6131 43.6588 33.2947
946 57 39.0385 39.0092 39.0463
947 57 45.5459 45.4641 38.9720
948 40 42.2471 42.2615 42.2334
949 40 48.7779 48.7786 48.7344
950 8 41.5803 38.9734 39.0441
951 8 49.4154 39.0228 38.9519
952 8 38.9884 41.5798 39.0384
953 8 39.0496 49.4122 39.0401
954 3 44.3431 44.1131 39.1665
955 3 51.6390 43.8527 49.3559
956 3 45.5236 44.5834 49.6830
957 3 50.5774 43.4245 45.2556
958 3 40.8701 47.8012 42.9973
959 3 43.5518 41.2782 39.2188
960 3 50.2473 51.8841 45.0612
ITEM: TIMESTEP
1000
ITEM: NUMBER OF ATOMS
960
ITEM: BOX BOUNDS pp pp pp
0.0 52.0
0.0 52.0
0.0 52.0
ITEM: ATOMS id type x y z
1 57 0.0019 -0.0128 -0.0238
2 57 6.5320 6.5271 0.0264
3 40 3.2048 3.2220 3.2839
4 40 9.7833 9.7765 9.7683
5 8 2.5593 0.0178 -0.0152
6 8 10.3901 0.0177 0.0352
7 8 -0.0417 2.6243 -0.0200
8 8 -0.0495 10.4316 -0.0148
9 3 5.6972 2.6888 11.1977
10 3 3.9237 7.1626 9.6917
11 3 8.6938 4.7062 2.1935
12 3 12.1829 1.2129 1.1992