ITEM: TIMESTEP
1
ITEM: NUMBER OF ATOMS
960
ITEM: BOX BOUNDS pp pp pp
0.0 52.0
0.0 52.0
0.0 52.0
ITEM: ATOMS id type x y z
1 57 0.000 0.000 0.000
2 57 6.500 6.500 0.000
3 40 3.250 3.250 3.250
4 40 9.750 9.750 9.750
5 8 2.600 0.000 0.000
6 8 10.400 0.000 0.000
7 8 0.000 2.600 0.000
8 8 0.000 10.400 0.000
9 3 5.691 2.703 11.194
10 3 3.937 7.164 9.710
11 3 8.707 4.714 2.177
12 3 12.167 1.188 1.171
13 3 2.093 3.043 9.663
14 3 11.133 12.363 12.859
15 3 2.400 7.454 4.158
16 57 0.000 0.000 13.000
17 57 6.500 6.500 13.000
18 40 3.250 3.250 16.250
19 40 9.750 9.750 22.750
20 8 2.600 0.000 13.000
21 8 10.400 0.000 13.000
22 8 0.000 2.600 13.000
23 8 0.000 10.400 13.000
24 3 2.508 3.753 24.409
25 3 12.699 10.481 16.031
26 3 11.783 10.426 25.587
27 3 11.622 12.880 25.401
28 3 4.362 7.896 14.603
29 3 10.366 5.940 17.627
30 3 5.852 7.379 14.158
31 57 0.000 0.000 26.000
32 57 6.500 6.500 26.000
33 40 3.250 3.250 29.250
34 40 9.750 9.750 35.750
35 8 2.600 0.000 26.000
36 8 10.400 0.000 26.000
37 8 0.000 2.600 26.000
38 8 0.000 10.400 26.000
39 3 3.776 3.134 34.368
40 3 0.774 0.098 36.892
41 3 2.098 5.491 36.731
42 3 12.826 8.743 36.968
43 3 8.814 10.399 34.590
44 3 10.558 5.705 37.013
45 3 9.611 5.838 29.684
46 57 0.000 0.000 39.000
47 57 6.500 6.500 39.000
48 40 3.250 3.250 42.250
49 40 9.750 9.750 48.750
50 8 2.600 0.000 39.000
51 8 10.400 0.000 39.000
52 8 0.000 2.600 39.000
53 8 0.000 10.400 39.000
54 3 7.197 11.139 51.519
55 3 3.884 12.372 46.501
56 3 1.028 10.877 39.688
57 3 0.372 12.167 43.276
58 3 3.542 6.389 42.067
59 3 12.832 7.075 39.943
60 3 4.343 1.902 41.177
61 57 0.000 13.000 0.000
62 57 6.500 19.500 0.000
63 40 3.250 16.250 3.250
64 40 9.750 22.750 9.750
65 8 2.600 13.000 0.000
66 8 10.400 13.000 0.000
67 8 0.000 15.600 0.000
68 8 0.000 23.400 0.000
69 3 2.877 14.767 3.618
70 3 11.337 15.568 7.048
71 3 5.009 19.246 1.165
72 3 5.636 22.419 5.014
73 3 12.173 20.834 6.254
74 3 4.528 13.861 12.457
75 3 2.568 19.014 11.169
76 57 0.000 13.000 13.000
77 57 6.500 19.500 13.000
78 40 3.250 16.250 16.250
79 40 9.750 22.750 22.750
80 8 2.600 13.000 13.000
81 8 10.400 13.000 13.000
82 8 0.000 15.600 13.000
83 8 0.000 23.400 13.000
84 3 10.951 23.135 19.382
85 3 4.624 16.693 15.283
86 3 9.600 21.379 13.627
87 3 6.517 18.686 14.046
88 3 3.425 19.112 20.788
89 3 4.213 24.141 18.193
90 3 4.556 17.211 25.073
91 57 0.000 13.000 26.000
92 57 6.500 19.500 26.000
93 40 3.250 16.250 29.250
94 40 9.750 22.750 35.750
95 8 2.600 13.000 26.000
96 8 10.400 13.000 26.000
97 8 0.000 15.600 26.000
98 8 0.000 23.400 26.000
99 3 9.592 25.177 27.370
100 3 7.973 25.003 27.685
101 3 11.438 18.263 27.634
102 3 4.383 17.399 38.367
103 3 3.257 25.579 27.167
104 3 3.558 24.960 33.922
105 3 4.965 24.649 27.977
106 57 0.000 13.000 39.000
107 57 6.500 19.500 39.000
108 40 3.250 16.250 42.250
109 40 9.750 22.750 48.750
110 8 2.600 13.000 39.000
111 8 10.400 13.000 39.000
112 8 0.000 15.600 39.000
113 8 0.000 23.400 39.000
114 3 1.480 19.462 42.103
115 3 4.577 20.250 49.237
116 3 3.548 15.405 49.457
117 3 8.597 16.484 47.438
118 3 4.541 15.837 46.249
119 3 9.293 14.427 41.361
120 3 7.320 15.210 46.621
121 57 0.000 26.000 0.000
122 57 6.500 32.500 0.000
123 40 3.250 29.250 3.250
124 40 9.750 35.750 9.750
125 8 2.600 26.000 0.000
126 8 10.400 26.000 0.000
127 8 0.000 28.600 0.000
128 8 0.000 36.400 0.000
129 3 5.789 37.858 6.327
130 3 10.168 32.594 11.971
131 3 3.098 29.351 5.731
132 3 12.853 35.818 2.358
133 3 8.624 38.852 12.352
134 3 3.688 32.569 1.939
135 3 11.310 35.280 2.755
136 57 0.000 26.000 13.000
137 57 6.500 32.500 13.000
138 40 3.250 29.250 16.250
139 40 9.750 35.750 22.750
140 8 2.600 26.000 13.000
141 8 10.400 26.000 13.000
142 8 0.000 28.600 13.000
143 8 0.000 36.400 13.000
144 3 5.346 35.744 23.624
145 3 5.215 31.166 20.968
146 3 6.448 37.172 23.714
147 3 7.666 38.204 21.955
148 3 7.029 36.664 16.914
149 3 10.591 37.313 25.889
150 3 10.510 35.368 19.202
151 57 0.000 26.000 26.000
152 57 6.500 32.500 26.000
153 40 3.250 29.250 29.250
154 40 9.750 35.750 35.750
155 8 2.600 26.000 26.000
156 8 10.400 26.000 26.000
157 8 0.000 28.600 26.000
158 8 0.000 36.400 26.000
159 3 9.243 30.425 30.040
160 3 5.755 35.014 34.263
161 3 12.045 32.182 32.444
162 3 2.270 37.408 29.883
163 3 10.170 31.983 28.147
164 3 5.436 30.287 28.523
165 3 11.154 30.853 37.705
166 57 0.000 26.000 39.000
167 57 6.500 32.500 39.000
168 40 3.250 29.250 42.250
169 40 9.750 35.750 48.750
170 8 2.600 26.000 39.000
171 8 10.400 26.000 39.000
172 8 0.000 28.600 39.000
173 8 0.000 36.400 39.000
174 3 11.169 30.270 51.453
175 3 9.506 26.629 50.543
176 3 7.053 31.691 45.509
177 3 2.782 31.034 50.203
178 3 5.080 37.765 47.748
179 3 10.137 35.549 45.844
180 3 4.905 36.094 49.042
181 57 0.000 39.000 0.000
182 57 6.500 45.500 0.000
183 40 3.250 42.250 3.250
184 40 9.750 48.750 9.750
185 8 2.600 39.000 0.000
186 8 10.400 39.000 0.000
187 8 0.000 41.600 0.000
188 8 0.000 49.400 0.000
189 3 11.246 40.275 1.403
190 3 9.069 49.926 4.119
191 3 1.112 43.588 0.980
192 3 1.264 40.455 9.782
193 3 11.064 40.064 12.049
194 3 3.463 50.865 5.709
195 3 1.477 51.640 7.358
196 57 0.000 39.000 13.000
197 57 6.500 45.500 13.000
198 40 3.250 42.250 16.250
199 40 9.750 48.750 22.750
200 8 2.600 39.000 13.000
201 8 10.400 39.000 13.000
202 8 0.000 41.600 13.000
203 8 0.000 49.400 13.000
204 3 4.531 48.897 13.383
205 3 0.293 46.758 25.827
206 3 5.803 45.251 13.442
207 3 2.462 51.005 18.347
208 3 1.648 43.683 21.320
209 3 1.956 44.444 18.153
210 3 6.769 47.654 24.513
211 57 0.000 39.000 26.000
212 57 6.500 45.500 26.000
213 40 3.250 42.250 29.250
214 40 9.750 48.750 35.750
215 8 2.600 39.000 26.000
216 8 10.400 39.000 26.000
217 8 0.000 41.600 26.000
218 8 0.000 49.400 26.000
219 3 6.833 48.704 30.510
220 3 5.571 48.328 30.253
221 3 4.288 43.769 28.795
222 3 0.112 42.061 31.083
223 3 5.363 41.637 32.250
224 3 10.845 51.933 26.699
225 3 12.628 48.547 26.625
226 57 0.000 39.000 39.000
227 57 6.500 45.500 39.000
228 40 3.250 42.250 42.250
229 40 9.750 48.750 48.750
230 8 2.600 39.000 39.000
231 8 10.400 39.000 39.000
232 8 0.000 41.600 39.000
233 8 0.000 49.400 39.000
234 3 3.639 50.173 39.137
235 3 9.513 42.188 49.609
236 3 8.714 42.603 41.118
237 3 6.385 47.826 39.250
238 3 4.589 48.906 49.279
239 3 11.502 51.203 51.701
240 3 4.997 41.329 45.303
241 57 13.000 0.000 0.000
242 57 19.500 6.500 0.000
243 40 16.250 3.250 3.250
244 40 22.750 9.750 9.750
245 8 15.600 0.000 0.000
246 8 23.400 0.000 0.000
247 8 13.000 2.600 0.000
248 8 13.000 10.400 0.000
249 3 19.420 2.122 1.119
250 3 22.082 2.803 7.636
251 3 15.025 0.104 3.756
252 3 23.061 4.151 5.473
253 3 13.161 3.013 3.136
254 3 24.718 8.611 9.959
255 3 20.609 10.279 9.213
256 57 13.000 0.000 13.000
257 57 19.500 6.500 13.000
258 40 16.250 3.250 16.250
259 40 22.750 9.750 22.750
260 8 15.600 0.000 13.000
261 8 23.400 0.000 13.000
262 8 13.000 2.600 13.000
263 8 13.000 10.400 13.000
264 3 16.519 5.871 23.397
265 3 16.928 12.566 18.549
266 3 18.302 4.524 24.097
267 3 14.573 3.687 18.220
268 3 20.005 4.678 17.008
269 3 25.349 7.261 13.651
270 3 14.101 11.746 14.885
271 57 13.000 0.000 26.000
272 57 19.500 6.500 26.000
273 40 16.250 3.250 29.250
274 40 22.750 9.750 35.750
275 8 15.600 0.000 26.000
276 8 23.400 0.000 26.000
277 8 13.000 2.600 26.000
278 8 13.000 10.400 26.000
279 3 19.883 3.101 31.230
280 3 16.107 3.603 26.671
281 3 18.141 5.747 33.064
282 3 18.994 12.647 37.304
283 3 14.469 10.552 33.249
284 3 25.888 5.200 32.261
285 3 22.629 12.031 31.666
286 57 13.000 0.000 39.000
287 57 19.500 6.500 39.000
288 40 16.250 3.250 42.250
289 40 22.750 9.750 48.750
290 8 15.600 0.000 39.000
291 8 23.400 0.000 39.000
292 8 13.000 2.600 39.000
293 8 13.000 10.400 39.000
294 3 21.770 12.549 43.818
295 3 13.587 0.585 45.230
296 3 18.257 12.859 44.976
297 3 17.530 1.544 49.459
298 3 21.330 1.331 43.553
299 3 15.734 9.776 46.169
300 3 22.903 10.560 47.710
301 57 13.000 13.000 0.000
302 57 19.500 19.500 0.000
303 40 16.250 16.250 3.250
304 40 22.750 22.750 9.750
305 8 15.600 13.000 0.000
306 8 23.400 13.000 0.000
307 8 13.000 15.600 0.000
308 8 13.000 23.400 0.000
309 3 18.426 19.713 7.755
310 3 13.397 23.071 8.743
311 3 21.794 13.116 5.238
312 3 21.870 14.538 8.688
313 3 14.727 23.332 2.746
314 3 15.196 13.099 3.611
315 3 24.687 23.184 1.824
316 57 13.000 13.000 13.000
317 57 19.500 19.500 13.000
318 40 16.250 16.250 16.250
319 40 22.750 22.750 22.750
320 8 15.600 13.000 13.000
321 8 23.400 13.000 13.000
322 8 13.000 15.600 13.000
323 8 13.000 23.400 13.000
324 3 24.211 16.976 24.093
325 3 13.039 18.362 23.341
326 3 24.032 18.547 20.497
327 3 16.623 24.264 16.525
328 3 18.085 18.478 13.336
329 3 14.665 17.936 23.149
330 3 16.240 23.435 16.814
331 57 13.000 13.000 26.000
332 57 19.500 19.500 26.000
333 40 16.250 16.250 29.250
334 40 22.750 22.750 35.750
335 8 15.600 13.000 26.000
336 8 23.400 13.000 26.000
337 8 13.000 15.600 26.000
338 8 13.000 23.400 26.000
339 3 16.187 22.766 30.472
340 3 18.977 14.263 34.383
341 3 24.179 20.429 35.327
342 3 25.040 19.543 36.754
343 3 20.996 14.782 35.160
344 3 25.908 18.192 32.951
345 3 22.368 19.478 37.950
346 57 13.000 13.000 39.000
347 57 19.500 19.500 39.000
348 40 16.250 16.250 42.250
349 40 22.750 22.750 48.750
350 8 15.600 13.000 39.000
351 8 23.400 13.000 39.000
352 8 13.000 15.600 39.000
353 8 13.000 23.400 39.000
354 3 25.620 23.174 43.918
355 3 19.292 13.913 44.371
356 3 21.680 18.253 50.459
357 3 23.349 23.433 51.533
358 3 17.799 21.104 42.137
359 3 14.323 20.444 42.650
360 3 16.555 13.371 43.901
361 57 13.000 26.000 0.000
362 57 19.500 32.500 0.000
363 40 16.250 29.250 3.250
364 40 22.750 35.750 9.750
365 8 15.600 26.000 0.000
366 8 23.400 26.000 0.000
367 8 13.000 28.600 0.000
368 8 13.000 36.400 0.000
369 3 17.585 34.595 5.869
370 3 14.473 31.698 10.166
371 3 14.040 32.908 4.842
372 3 16.218 31.167 7.289
373 3 25.462 27.715 7.868
374 3 15.424 37.673 9.325
375 3 17.904 37.256 5.630
376 57 13.000 26.000 13.000
377 57 19.500 32.500 13.000
378 40 16.250 29.250 16.250
379 40 22.750 35.750 22.750
380 8 15.600 26.000 13.000
381 8 23.400 26.000 13.000
382 8 13.000 28.600 13.000
383 8 13.000 36.400 13.000
384 3 17.079 27.405 18.330
385 3 23.704 27.542 21.493
386 3 25.686 29.863 13.145
387 3 17.999 37.983 22.572
388 3 18.604 36.621 19.206
389 3 24.366 35.175 20.231
390 3 18.291 34.314 20.938
391 57 13.000 26.000 26.000
392 57 19.500 32.500 26.000
393 40 16.250 29.250 29.250
394 40 22.750 35.750 35.750
395 8 15.600 26.000 26.000
396 8 23.400 26.000 26.000
397 8 13.000 28.600 26.000
398 8 13.000 36.400 26.000
399 3 17.311 38.648 33.641
400 3 14.011 28.000 36.342
401 3 15.950 38.527 37.678
402 3 22.270 33.882 30.093
403 3 19.371 27.631 34.080
404 3 19.370 26.524 37.474
405 3 16.914 34.635 30.965
406 57 13.000 26.000 39.000
407 57 19.500 32.500 39.000
408 40 16.250 29.250 42.250
409 40 22.750 35.750 48.750
410 8 15.600 26.000 39.000
411 8 23.400 26.000 39.000
412 8 13.000 28.600 39.000
413 8 13.000 36.400 39.000
414 3 22.297 27.569 51.587
415 3 24.747 31.363 49.260
416 3 15.523 30.454 45.329
417 3 20.982 26.699 51.123
418 3 13.561 34.946 49.270
419 3 25.098 34.425 39.157
420 3 20.782 34.923 41.378
421 57 13.000 39.000 0.000
422 57 19.500 45.500 0.000
423 40 16.250 42.250 3.250
424 40 22.750 48.750 9.750
425 8 15.600 39.000 0.000
426 8 23.400 39.000 0.000
427 8 13.000 41.600 0.000
428 8 13.000 49.400 0.000
429 3 19.109 46.547 1.391
430 3 24.830 39.890 7.759
431 3 17.524 43.449 4.069
432 3 25.248 45.818 5.961
433 3 20.947 48.289 6.523
434 3 16.803 42.803 11.358
435 3 13.273 50.367 0.646
436 57 13.000 39.000 13.000
437 57 19.500 45.500 13.000
438 40 16.250 42.250 16.250
439 40 22.750 48.750 22.750
440 8 15.600 39.000 13.000
441 8 23.400 39.000 13.000
442 8 13.000 41.600 13.000
443 8 13.000 49.400 13.000
444 3 15.204 46.348 16.617
445 3 23.733 50.403 20.121
446 3 17.232 42.392 22.047
447 3 20.054 47.740 21.653
448 3 15.414 46.670 20.143
449 3 15.075 50.460 17.965
450 3 23.942 49.885 25.927
451 57 13.000 39.000 26.000
452 57 19.500 45.500 26.000
453 40 16.250 42.250 29.250
454 40 22.750 48.750 35.750
455 8 15.600 39.000 26.000
456 8 23.400 39.000 26.000
457 8 13.000 41.600 26.000
458 8 13.000 49.400 26.000
459 3 17.187 39.571 36.670
460 3 24.753 44.347 33.237
461 3 18.628 51.031 37.793
462 3 13.303 40.476 37.770
463 3 22.854 49.412 36.725
464 3 25.419 47.464 35.017
465 3 24.390 49.839 38.680
466 57 13.000 39.000 39.000
467 57 19.500 45.500 39.000
468 40 16.250 42.250 42.250
469 40 22.750 48.750 48.750
470 8 15.600 39.000 39.000
471 8 23.400 39.000 39.000
472 8 13.000 41.600 39.000
473 8 13.000 49.400 39.000
474 3 25.131 48.583 44.142
475 3 13.835 39.807 41.921
476 3 19.791 50.623 46.272
477 3 16.061 48.906 45.556
478 3 19.387 46.764 49.521
479 3 22.898 48.607 44.751
480 3 25.242 49.691 50.815
481 57 26.000 0.000 0.000
482 57 32.500 6.500 0.000
483 40 29.250 3.250 3.250
484 40 35.750 9.750 9.750
485 8 28.600 0.000 0.000
486 8 36.400 0.000 0.000
487 8 26.000 2.600 0.000
488 8 26.000 10.400 0.000
489 3 36.949 10.165 1.551
490 3 29.262 0.916 5.099
491 3 26.805 4.637 10.845
492 3 26.794 7.709 3.396
493 3 35.848 8.955 9.246
494 3 33.548 8.710 2.583
495 3 29.952 6.986 2.040
496 57 26.000 0.000 13.000
497 57 32.500 6.500 13.000
498 40 29.250 3.250 16.250
499 40 35.750 9.750 22.750
500 8 28.600 0.000 13.000
501 8 36.400 0.000 13.000
502 8 26.000 2.600 13.000
503 8 26.000 10.400 13.000
504 3 30.746 10.475 17.131
505 3 27.669 10.741 24.612
506 3 36.206 12.452 25.653
507 3 27.155 5.822 14.348
508 3 35.736 6.144 22.739
509 3 28.983 12.897 19.984
510 3 29.684 4.686 23.906
511 57 26.000 0.000 26.000
512 57 32.500 6.500 26.000
513 40 29.250 3.250 29.250
514 40 35.750 9.750 35.750
515 8 28.600 0.000 26.000
516 8 36.400 0.000 26.000
517 8 26.000 2.600 26.000
518 8 26.000 10.400 26.000
519 3 38.743 9.378 34.995
520 3 35.823 9.738 26.550
521 3 38.732 10.003 34.877
522 3 32.411 0.173 29.334
523 3 32.430 5.250 27.485
524 3 36.421 1.066 31.281
525 3 35.199 0.127 28.174
526 57 26.000 0.000 39.000
527 57 32.500 6.500 39.000
528 40 29.250 3.250 42.250
529 40 35.750 9.750 48.750
530 8 28.600 0.000 39.000
531 8 36.400 0.000 39.000
532 8 26.000 2.600 39.000
533 8 26.000 10.400 39.000
534 3 31.093 0.327 50.052
535 3 33.906 7.857 40.651
536 3 28.524 5.065 42.447
537 3 35.691 0.356 51.960
538 3 38.768 3.493 47.477
539 3 32.948 0.237 48.605
540 3 35.962 4.340 43.449
541 57 26.000 13.000 0.000
542 57 32.500 19.500 0.000
543 40 29.250 16.250 3.250
544 40 35.750 22.750 9.750
545 8 28.600 13.000 0.000
546 8 36.400 13.000 0.000
547 8 26.000 15.600 0.000
548 8 26.000 23.400 0.000
549 3 37.576 20.564 3.288
550 3 37.607 13.653 11.092
551 3 30.812 21.714 11.189
552 3 37.454 23.813 10.279
553 3 35.997 15.912 9.380
554 3 32.749 18.020 11.146
555 3 26.541 16.483 6.850
556 57 26.000 13.000 13.000
557 57 32.500 19.500 13.000
558 40 29.250 16.250 16.250
559 40 35.750 22.750 22.750
560 8 28.600 13.000 13.000
561 8 36.400 13.000 13.000
562 8 26.000 15.600 13.000
563 8 26.000 23.400 13.000
564 3 35.271 15.910 24.936
565 3 28.557 18.061 14.645
566 3 33.642 15.134 24.678
567 3 28.930 16.149 25.178
568 3 36.922 20.269 25.408
569 3 37.787 18.234 14.316
570 3 30.850 23.652 17.933
571 57 26.000 13.000 26.000
572 57 32.500 19.500 26.000
573 40 29.250 16.250 29.250
574 40 35.750 22.750 35.750
575 8 28.600 13.000 26.000
576 8 36.400 13.000 26.000
577 8 26.000 15.600 26.000
578 8 26.000 23.400 26.000
579 3 37.862 24.701 27.494
580 3 30.454 18.156 30.311
581 3 28.379 13.686 30.410
582 3 31.642 19.580 34.938
583 3 32.946 22.245 26.196
584 3 32.739 23.140 32.616
585 3 37.157 14.174 37.172
586 57 26.000 13.000 39.000
587 57 32.500 19.500 39.000
588 40 29.250 16.250 42.250
589 40 35.750 22.750 48.750
590 8 28.600 13.000 39.000
591 8 36.400 13.000 39.000
592 8 26.000 15.600 39.000
593 8 26.000 23.400 39.000
594 3 37.937 18.972 50.367
595 3 27.440 13.921 40.425
596 3 28.561 21.972 42.223
597 3 30.581 24.366 48.377
598 3 26.180 14.230 41.559
599 3 31.239 24.881 39.395
600 3 37.396 23.823 48.804
601 57 26.000 26.000 0.000
602 57 32.500 32.500 0.000
603 40 29.250 29.250 3.250
604 40 35.750 35.750 9.750
605 8 28.600 26.000 0.000
606 8 36.400 26.000 0.000
607 8 26.000 28.600 0.000
608 8 26.000 36.400 0.000
609 3 27.025 34.198 5.277
610 3 30.423 35.883 11.129
611 3 37.813 33.012 7.185
612 3 34.309 29.786 0.194
613 3 37.611 37.121 1.941
614 3 31.467 35.394 0.352
615 3 26.055 33.408 5.117
616 57 26.000 26.000 13.000
617 57 32.500 32.500 13.000
618 40 29.250 29.250 16.250
619 40 35.750 35.750 22.750
620 8 28.600 26.000 13.000
621 8 36.400 26.000 13.000
622 8 26.000 28.600 13.000
623 8 26.000 36.400 13.000
624 3 31.726 26.862 20.815
625 3 37.347 27.786 21.796
626 3 36.765 26.195 22.282
627 3 33.371 34.749 18.505
628 3 26.481 35.429 18.342
629 3 28.269 32.434 19.883
630 3 37.988 34.469 19.458
631 57 26.000 26.000 26.000
632 57 32.500 32.500 26.000
633 40 29.250 29.250 29.250
634 40 35.750 35.750 35.750
635 8 28.600 26.000 26.000
636 8 36.400 26.000 26.000
637 8 26.000 28.600 26.000
638 8 26.000 36.400 26.000
639 3 33.282 29.657 27.802
640 3 26.846 30.122 29.535
641 3 31.555 33.580 33.437
642 3 27.850 28.888 29.525
643 3 26.755 38.114 38.734
644 3 38.429 35.851 32.789
645 3 36.122 37.727 31.905
646 57 26.000 26.000 39.000
647 57 32.500 32.500 39.000
648 40 29.250 29.250 42.250
649 40 35.750 35.750 48.750
650 8 28.600 26.000 39.000
651 8 36.400 26.000 39.000
652 8 26.000 28.600 39.000
653 8 26.000 36.400 39.000
654 3 28.822 30.767 48.229
655 3 32.577 30.428 44.834
656 3 37.858 38.410 39.668
657 3 35.532 27.983 39.871
658 3 27.438 35.604 47.929
659 3 38.952 37.257 44.481
660 3 35.955 32.254 48.335
661 57 26.000 39.000 0.000
662 57 32.500 45.500 0.000
663 40 29.250 42.250 3.250
664 40 35.750 48.750 9.750
665 8 28.600 39.000 0.000
666 8 36.400 39.000 0.000
667 8 26.000 41.600 0.000
668 8 26.000 49.400 0.000
669 3 28.999 49.550 9.137
670 3 33.184 47.381 6.578
671 3 26.386 51.286 2.168
672 3 37.628 49.513 2.171
673 3 27.057 45.639 12.546
674 3 27.341 48.225 6.121
675 3 27.288 42.884 12.946
676 57 26.000 39.000 13.000
677 57 32.500 45.500 13.000
678 40 29.250 42.250 16.250
679 40 35.750 48.750 22.750
680 8 28.600 39.000 13.000
681 8 36.400 39.000 13.000
682 8 26.000 41.600 13.000
683 8 26.000 49.400 13.000
684 3 29.521 40.329 25.626
685 3 28.982 45.990 24.975
686 3 38.994 48.385 16.100
687 3 33.886 46.915 22.007
688 3 28.177 45.256 23.778
689 3 32.959 45.499 14.330
690 3 36.493 39.956 24.696
691 57 26.000 39.000 26.000
692 57 32.500 45.500 26.000
693 40 29.250 42.250 29.250
694 40 35.750 48.750 35.750
695 8 28.600 39.000 26.000
696 8 36.400 39.000 26.000
697 8 26.000 41.600 26.000
698 8 26.000 49.400 26.000
699 3 34.482 51.853 37.230
700 3 32.293 44.664 38.771
701 3 35.856 39.675 28.820
702 3 28.016 49.873 33.875
703 3 31.200 41.484 32.262
704 3 29.336 48.843 29.273
705 3 33.134 45.010 28.286
706 57 26.000 39.000 39.000
707 57 32.500 45.500 39.000
708 40 29.250 42.250 42.250
709 40 35.750 48.750 48.750
710 8 28.600 39.000 39.000
711 8 36.400 39.000 39.000
712 8 26.000 41.600 39.000
713 8 26.000 49.400 39.000
714 3 35.658 39.850 41.701
715 3 29.537 39.724 43.642
716 3 34.177 48.991 48.263
717 3 36.647 42.865 44.509
718 3 38.033 43.968 50.464
719 3 38.456 47.838 47.023
720 3 34.538 47.334 48.488
721 57 39.000 0.000 0.000
722 57 45.500 6.500 0.000
723 40 42.250 3.250 3.250
724 40 48.750 9.750 9.750
725 8 41.600 0.000 0.000
726 8 49.400 0.000 0.000
727 8 39.000 2.600 0.000
728 8 39.000 10.400 0.000
729 3 40.211 3.569 5.617
730 3 41.093 1.770 2.424
731 3 48.650 3.550 11.997
732 3 46.227 8.322 2.863
733 3 46.065 9.922 3.645
734 3 48.509 10.281 10.779
735 3 40.900 0.897 12.202
736 57 39.000 0.000 13.000
737 57 45.500 6.500 13.000
738 40 42.250 3.250 16.250
739 40 48.750 9.750 22.750
740 8 41.600 0.000 13.000
741 8 49.400 0.000 13.000
742 8 39.000 2.600 13.000
743 8 39.000 10.400 13.000
744 3 39.874 9.811 23.433
745 3 48.812 1.045 25.256
746 3 45.795 8.477 16.114
747 3 48.280 6.253 24.773
748 3 50.191 5.403 13.997
749 3 40.450 6.632 14.067
750 3 51.302 6.928 21.370
751 57 39.000 0.000 26.000
752 57 45.500 6.500 26.000
753 40 42.250 3.250 29.250
754 40 48.750 9.750 35.750
755 8 41.600 0.000 26.000
756 8 49.400 0.000 26.000
757 8 39.000 2.600 26.000
758 8 39.000 10.400 26.000
759 3 42.505 8.827 32.626
760 3 42.777 11.703 26.387
761 3 48.930 10.806 32.841
762 3 49.062 9.741 27.473
763 3 46.696 6.228 26.885
764 3 46.259 4.337 35.427
765 3 51.296 8.381 34.634
766 57 39.000 0.000 39.000
767 57 45.500 6.500 39.000
768 40 42.250 3.250 42.250
769 40 48.750 9.750 48.750
770 8 41.600 0.000 39.000
771 8 49.400 0.000 39.000
772 8 39.000 2.600 39.000
773 8 39.000 10.400 39.000
774 3 42.427 12.603 41.843
775 3 46.712 5.732 45.790
776 3 39.349 7.159 45.671
777 3 42.322 4.296 44.770
778 3 48.494 3.523 44.431
779 3 48.327 8.923 42.245
780 3 51.990 10.993 43.109
781 57 39.000 13.000 0.000
782 57 45.500 19.500 0.000
783 40 42.250 16.250 3.250
784 40 48.750 22.750 9.750
785 8 41.600 13.000 0.000
786 8 49.400 13.000 0.000
787 8 39.000 15.600 0.000
788 8 39.000 23.400 0.000
789 3 43.091 16.292 6.498
790 3 45.796 13.410 7.541
791 3 47.929 21.566 5.366
792 3 42.283 17.286 9.035
793 3 46.981 24.762 2.426
794 3 51.361 20.926 9.955
795 3 49.977 21.708 12.251
796 57 39.000 13.000 13.000
797 57 45.500 19.500 13.000
798 40 42.250 16.250 16.250
799 40 48.750 22.750 22.750
800 8 41.600 13.000 13.000
801 8 49.400 13.000 13.000
802 8 39.000 15.600 13.000
803 8 39.000 23.400 13.000
804 3 50.035 20.030 25.893
805 3 45.552 23.471 21.758
806 3 41.844 17.170 21.022
807 3 46.224 22.746 18.585
808 3 51.652 23.205 16.041
809 3 42.726 19.140 17.748
810 3 46.515 18.385 22.616
811 57 39.000 13.000 26.000
812 57 45.500 19.500 26.000
813 40 42.250 16.250 29.250
814 40 48.750 22.750 35.750
815 8 41.600 13.000 26.000
816 8 49.400 13.000 26.000
817 8 39.000 15.600 26.000
818 8 39.000 23.400 26.000
819 3 43.944 25.576 37.617
820 3 47.705 20.653 32.494
821 3 47.894 23.578 28.159
822 3 48.825 19.393 30.612
823 3 42.855 16.865 30.317
824 3 41.010 24.497 37.291
825 3 48.706 20.770 38.804
826 57 39.000 13.000 39.000
827 57 45.500 19.500 39.000
828 40 42.250 16.250 42.250
829 40 48.750 22.750 48.750
830 8 41.600 13.000 39.000
831 8 49.400 13.000 39.000
832 8 39.000 15.600 39.000
833 8 39.000 23.400 39.000
834 3 44.753 16.045 49.755
835 3 51.824 15.685 40.018
836 3 45.272 22.977 50.620
837 3 51.457 22.676 51.776
838 3 40.066 18.365 40.080
839 3 51.804 25.721 39.278
840 3 44.003 21.005 46.532
841 57 39.000 26.000 0.000
842 57 45.500 32.500 0.000
843 40 42.250 29.250 3.250
844 40 48.750 35.750 9.750
845 8 41.600 26.000 0.000
846 8 49.400 26.000 0.000
847 8 39.000 28.600 0.000
848 8 39.000 36.400 0.000
849 3 40.957 37.666 10.036
850 3 43.786 33.760 5.199
851 3 50.457 27.425 3.715
852 3 48.103 38.099 8.767
853 3 51.595 33.817 12.585
854 3 47.590 33.963 3.695
855 3 51.313 37.153 8.495
856 57 39.000 26.000 13.000
857 57 45.500 32.500 13.000
858 40 42.250 29.250 16.250
859 40 48.750 35.750 22.750
860 8 41.600 26.000 13.000
861 8 49.400 26.000 13.000
862 8 39.000 28.600 13.000
863 8 39.000 36.400 13.000
864 3 42.805 28.011 14.021
865 3 50.097 38.698 16.514
866 3 46.832 35.924 13.453
867 3 45.694 30.431 23.642
868 3 47.297 28.138 25.646
869 3 48.680 38.415 13.521
870 3 51.614 29.523 19.455
871 57 39.000 26.000 26.000
872 57 45.500 32.500 26.000
873 40 42.250 29.250 29.250
874 40 48.750 35.750 35.750
875 8 41.600 26.000 26.000
876 8 49.400 26.000 26.000
877 8 39.000 28.600 26.000
878 8 39.000 36.400 26.000
879 3 40.265 29.841 28.129
880 3 49.065 34.743 26.034
881 3 47.321 37.311 27.605
882 3 50.801 33.853 31.674
883 3 47.213 26.319 30.198
884 3 48.804 33.305 28.413
885 3 45.689 38.196 36.837
886 57 39.000 26.000 39.000
887 57 45.500 32.500 39.000
888 40 42.250 29.250 42.250
889 40 48.750 35.750 48.750
890 8 41.600 26.000 39.000
891 8 49.400 26.000 39.000
892 8 39.000 28.600 39.000
893 8 39.000 36.400 39.000
894 3 42.142 35.889 48.732
895 3 42.823 26.284 44.045
896 3 46.198 31.900 43.125
897 3 41.647 35.435 42.200
898 3 51.917 34.850 42.794
899 3 42.423 26.410 47.009
900 3 39.085 29.556 48.508
901 57 39.000 39.000 0.000
902 57 45.500 45.500 0.000
903 40 42.250 42.250 3.250
904 40 48.750 48.750 9.750
905 8 41.600 39.000 0.000
906 8 49.400 39.000 0.000
907 8 39.000 41.600 0.000
908 8 39.000 49.400 0.000
909 3 48.943 50.062 2.447
910 3 46.293 41.339 9.188
911 3 41.474 48.145 7.803
912 3 45.065 48.438 4.312
913 3 46.765 39.317 12.852
914 3 48.659 44.237 9.339
915 3 42.941 50.390 11.126
916 57 39.000 39.000 13.000
917 57 45.500 45.500 13.000
918 40 42.250 42.250 16.250
919 40 48.750 48.750 22.750
920 8 41.600 39.000 13.000
921 8 49.400 39.000 13.000
922 8 39.000 41.600 13.000
923 8 39.000 49.400 13.000
924 3 48.212 45.827 21.201
925 3 42.104 39.657 21.800
926 3 45.142 49.341 17.613
927 3 40.479 42.522 19.184
928 3 46.801 48.943 24.823
929 3 47.855 40.551 24.468
930 3 49.053 40.477 14.081
931 57 39.000 39.000 26.000
932 57 45.500 45.500 26.000
933 40 42.250 42.250 29.250
934 40 48.750 48.750 35.750
935 8 41.600 39.000 26.000
936 8 49.400 39.000 26.000
937 8 39.000 41.600 26.000
938 8 39.000 49.400 26.000
939 3 49.730 42.733 37.563
940 3 51.404 41.004 35.941
941 3 48.558 45.457 36.063
942 3 51.390 49.397 31.884
943 3 42.193 40.339 36.526
944 3 49.658 39.692 34.198
945 3 41.568 43.675 33.290
946 57 39.000 39.000 39.000
947 57 45.500 45.500 39.000
948 40 42.250 42.250 42.250
949 40 48.750 48.750 48.750
950 8 41.600 39.000 39.000
951 8 49.400 39.000 39.000
952 8 39.000 41.600 39.000
953 8 39.000 49.400 39.000
954 3 44.339 44.088 39.140
955 3 51.594 43.870 49.400
956 3 45.504 44.580 49.648
957 3 50.594 43.471 45.301
958 3 40.874 47.834 42.961
959 3 43.566 41.253 39.220
960 3 50.199 51.892 45.061
