ITEM: TIMESTEP
0
ITEM: NUMBER OF ATOMS
1500
ITEM: BOX BOUNDS pp pp pp
0.0 50.0
0.0 50.0
0.0 50.0
ITEM: ATOMS id type x y z glimmer_uq_std pca_drift_bias
1 3 41.6505 8.6198 40.7497
2 3 3.0874 2.4175 47.0929
3 3 13.9033 17.7886 23.3028
4 3 4.9227 28.0180 8.6524
5 3 48.6429 20.4961 37.4302
6 3 0.9705 3.4796 28.0049
7 3 31.8975 29.3497 42.5190
8 3 1.6366 40.8282 15.2244
9 3 40.7369 1.8320 13.6928
10 3 9.2895 37.0422 33.1842
11 3 38.7335 35.0523 30.2415
12 3 4.8017 16.2241 7.5618
13 3 20.2649 44.9112 6.3582
14 3 25.1174 10.3947 9.5617
15 3 42.1590 28.1482 37.3727
16 3 5.0248 11.2326 45.6677
17 3 28.5950 1.3909 0.4770
18 3 10.5923 6.6220 23.0041
19 3 43.6275 11.6083 11.6713
20 3 13.1180 16.7132 44.1965
21 3 22.1610 39.7389 34.0659
22 3 25.2561 4.2687 1.3714
23 3 19.3726 13.4588 17.4640
24 3 -0.6321 31.4648 20.9533
25 3 7.1084 10.5256 30.7195
26 3 45.0060 41.6763 47.6123
27 3 3.9583 24.4543 1.1478
28 3 1.1908 41.2501 42.4065
29 3 32.5544 12.3024 28.7183
30 3 44.1998 5.3587 40.3828
31 3 3.3366 1.6044 31.3317
32 3 2.7982 46.0540 4.1475
33 3 40.5138 39.6176 15.9415
34 3 19.9538 10.0337 8.7591
35 3 22.0081 41.5270 8.8891
36 3 49.7879 14.2792 43.9308
37 3 1.3522 45.1334 22.3612
38 3 20.2382 22.1903 7.1083
39 3 23.5608 50.2356 29.8035
40 3 27.3951 44.9424 35.0350
41 3 10.1487 5.3432 45.0302
42 3 43.0974 31.9752 5.4992
43 3 37.3854 49.7372 26.2488
44 3 6.1338 1.2951 26.9060
45 3 10.4551 42.4433 19.6576
46 3 39.8853 43.4257 18.4229
47 3 44.0010 38.2777 23.8847
48 3 2.5198 38.2076 17.1357
49 3 24.3150 0.9300 2.1312
50 3 7.3065 9.5326 47.0324
51 3 39.4761 19.5713 31.3603
52 3 37.2210 13.9148 3.2732
53 3 5.0485 17.2717 13.0564
54 3 13.8317 28.9166 16.9056
55 3 9.9660 21.3944 33.3196
56 3 20.9557 33.7953 1.3595
57 3 27.2703 27.2503 21.3778
58 3 29.2685 24.8811 42.1360
59 3 21.1781 19.4389 6.8547
60 3 3.0973 27.0357 0.0573
61 3 30.5672 41.8244 37.1311
62 3 13.8703 34.7338 37.5786
63 3 1.4477 22.1206 11.9135
64 3 41.4854 45.4446 21.1344
65 3 36.3011 50.2595 43.8688
66 3 34.3386 21.6333 38.1661
67 3 2.9959 20.1493 40.5689
68 3 43.0194 33.6677 40.2459
69 3 25.0901 34.7817 18.4817
70 3 23.3904 46.0727 47.5303
71 3 34.6379 24.0152 39.0742
72 3 41.5359 36.7652 30.7717
73 3 32.2533 29.3257 11.7582
74 3 32.3430 48.1370 34.3408
75 3 21.7776 3.7803 48.9608
76 3 42.1187 31.0371 2.5823
77 3 46.6994 38.3630 37.3272
78 3 27.9620 28.7137 34.0480
79 3 47.3551 14.5134 42.3225
80 3 13.8516 40.9855 40.9790
81 3 43.1034 39.6216 26.3584
82 3 47.6965 42.9745 43.1912
83 3 43.4608 5.4308 12.2121
84 3 38.9110 28.6674 39.2101
85 3 16.9783 28.9524 42.3818
86 3 2.8900 20.6702 42.8306
87 3 24.1554 32.4996 37.9164
88 3 40.4650 39.4854 32.1422
89 3 45.6740 14.6082 9.0314
90 3 44.4308 2.6024 10.3104
91 3 31.9720 18.2830 28.2463
92 3 46.9665 37.3773 5.2582
93 3 32.9238 48.1954 38.0094
94 3 48.8681 39.6308 44.5301
95 3 40.5824 35.7753 17.4672
96 3 13.9079 39.3781 8.2282
97 3 9.1743 39.2346 43.3825
98 3 7.2146 46.3404 29.8151
99 3 8.6484 48.8985 12.7424
100 3 48.2527 29.3371 14.2390
101 3 37.2990 39.2636 4.5773
102 3 13.6807 22.0954 41.9466
103 3 20.5206 39.0162 44.9035
104 3 33.7985 21.2267 23.4224
105 3 2.4741 38.6219 28.4745
106 3 16.6215 11.0405 47.4166
107 3 4.3622 7.1248 43.1230
108 3 48.5614 12.4413 38.2262
109 3 14.9405 21.0502 2.1261
110 3 34.3860 30.0060 41.3182
111 3 20.0646 22.3613 35.8859
112 3 37.3244 11.6057 7.8958
113 3 14.3606 44.3041 21.0399
114 3 25.9280 7.4507 15.9181
115 3 14.2655 10.1450 42.7846
116 3 44.6566 40.4729 36.7791
117 3 45.0753 37.4857 36.7532
118 3 6.3925 12.6859 40.8507
119 3 6.5593 3.8533 35.4849
120 3 17.2016 40.3092 30.2155
121 3 15.5003 9.2997 15.6722
122 3 3.5516 17.1761 16.7994
123 3 38.5400 37.2829 5.6760
124 3 13.4215 8.9884 42.2830
125 3 15.9533 11.0208 27.3632
126 3 27.0666 9.0894 3.7008
127 3 40.6375 8.3679 36.9921
128 3 12.8214 23.6783 16.4460
129 3 4.1772 21.4387 20.0725
130 3 9.5808 10.6767 40.8513
131 3 44.3493 14.4558 14.3912
132 3 34.5895 36.2155 0.5043
133 3 18.6080 32.9207 26.5743
134 3 24.5355 19.2840 13.4379
135 3 2.8946 22.9010 45.9533
136 3 1.6073 12.5452 7.8770
137 3 41.6943 27.1067 25.8950
138 3 2.0482 29.6434 10.2540
139 3 6.4875 36.5746 26.3637
140 3 47.9446 32.6584 14.9570
141 3 3.6297 0.9174 30.0912
142 3 34.3000 8.2561 20.1573
143 3 33.8763 28.6923 13.4464
144 3 39.8912 42.1949 47.8144
145 3 19.8848 38.9347 16.1901
146 3 35.7728 26.1010 37.1259
147 3 1.8908 9.0879 41.3562
148 3 17.6683 19.2747 5.0260
149 3 19.0946 30.5549 15.2449
150 3 40.0885 32.9745 29.1074
151 3 46.8686 26.8833 24.4278
152 3 8.8385 36.7838 41.3806
153 3 25.4693 40.9403 31.2445
154 3 13.4558 7.3710 32.5491
155 3 10.7490 31.5879 42.1733
156 3 29.4991 18.6491 10.5307
157 3 2.0404 5.1727 31.9689
158 3 3.5944 42.3277 41.1383
159 3 8.0301 42.1534 4.5341
160 3 34.8588 49.0177 23.4379
161 3 46.4196 10.1613 11.9058
162 3 12.2906 38.8371 39.4245
163 3 17.6517 6.6755 39.9387
164 3 7.4667 16.0213 37.3764
165 3 44.0857 10.4439 11.3589
166 3 8.1485 33.4421 4.3754
167 3 33.5737 -0.4185 7.6625
168 3 22.8963 1.2151 13.8623
169 3 29.0257 27.8427 17.2997
170 3 19.1638 28.5377 30.8183
171 3 21.7401 -0.5931 26.6524
172 3 20.9797 36.4976 31.3665
173 3 42.9612 50.5692 0.3561
174 3 30.2535 38.1716 14.2533
175 3 34.7185 7.8278 40.5342
176 3 22.0143 47.9850 39.4861
177 3 14.3327 21.6626 5.0475
178 3 46.4914 3.7424 10.3022
179 3 26.7192 49.6249 26.7345
180 3 48.2504 40.7714 43.4259
181 3 23.9881 44.3737 39.4037
182 3 12.2742 23.7613 41.0290
183 3 43.8793 19.4519 22.1244
184 3 24.6842 4.3905 27.6031
185 3 1.4737 21.9637 37.7842
186 3 30.9919 37.0188 44.5875
187 3 42.9548 17.8045 34.1469
188 3 28.5036 2.0301 18.5851
189 3 24.6929 26.4344 11.2013
190 3 30.9541 17.3295 35.5433
191 3 20.7264 30.2377 14.4561
192 3 37.9056 29.6396 46.3853
193 3 25.6162 5.5153 32.2696
194 3 33.6669 14.5763 37.2238
195 3 34.7875 5.0300 35.3332
196 3 47.5318 -0.8212 3.8566
197 3 36.1186 25.6263 11.2091
198 3 18.9640 42.1128 18.2406
199 3 26.3925 38.2704 32.0067
200 3 42.0547 19.0433 35.9594
201 3 24.5237 35.6985 1.3305
202 3 -0.4522 4.9278 5.9904
203 3 19.5946 18.1486 6.1503
204 3 29.6734 47.5779 19.7868
205 3 46.6230 16.7782 35.5173
206 3 23.0476 10.1915 43.7755
207 3 0.8581 12.2510 47.4059
208 3 38.0384 1.7798 28.5254
209 3 14.8401 8.7142 33.4455
210 3 19.8338 3.7138 11.4740
211 3 11.8078 35.0282 11.2055
212 3 10.3770 36.7132 0.1478
213 3 45.6023 47.3308 45.6874
214 3 49.9651 4.0334 20.1702
215 3 4.1741 30.7663 5.0994
216 3 30.5207 33.3884 48.1627
217 3 43.5997 31.1218 23.6700
218 3 -0.1925 31.7220 13.2781
219 3 50.5698 39.5094 28.2795
220 3 9.3395 33.5619 43.5163
221 3 33.3245 20.6885 10.5943
222 3 37.5724 37.7883 17.4150
223 3 46.3402 32.1848 24.5887
224 3 38.6530 47.6844 23.3601
225 3 3.1972 19.6350 44.7166
226 3 33.5957 27.8807 40.6484
227 3 29.3140 14.0844 49.8794
228 3 34.5880 33.6531 27.2025
229 3 48.7578 24.0896 34.7084
230 3 28.5836 42.4902 22.6382
231 3 22.8152 11.9588 34.8180
232 3 46.4269 25.8796 26.3009
233 3 8.4234 46.5366 2.5762
234 3 13.5315 16.2254 7.3753
235 3 22.9815 34.1760 4.8277
236 3 30.5727 0.8380 14.8920
237 3 42.6626 38.5006 32.0286
238 3 35.2865 14.4907 6.0338
239 3 0.4858 43.2558 25.5512
240 3 48.1960 38.2386 9.2247
241 3 23.8630 19.0120 27.2916
242 3 7.1701 39.9476 8.9223
243 3 21.3610 2.3580 44.5482
244 3 18.6166 38.4849 21.4293
245 3 24.6468 24.1565 30.5848
246 3 45.9732 43.3840 6.8949
247 3 32.7644 5.1900 29.0217
248 3 34.4699 -0.6068 1.5694
249 3 6.6092 28.9548 10.4437
250 3 13.8657 28.5759 22.2374
251 3 9.5336 15.4981 7.8494
252 3 25.8724 29.4146 42.5854
253 3 4.1279 48.3751 45.3687
254 3 34.6063 9.0424 31.4473
255 3 32.5040 16.1153 41.1590
256 3 20.9047 25.5663 7.8997
257 3 9.0330 28.3294 7.3340
258 3 17.0001 18.5956 44.5567
259 3 29.6632 43.8492 34.5850
260 3 4.7186 31.2652 29.7774
261 3 46.3620 27.2902 42.1950
262 3 36.9626 37.5586 49.1446
263 3 35.3112 27.3231 8.5486
264 3 37.7584 11.4308 3.9354
265 3 14.8474 13.2078 13.9931
266 3 6.0898 16.9575 35.0003
267 3 9.1463 6.1716 9.8456
268 3 0.8070 3.5172 25.1210
269 3 4.0258 7.2176 11.0061
270 3 47.7117 5.9619 49.8997
271 3 3.2578 26.5813 46.9772
272 3 38.5311 16.4293 49.7071
273 3 2.7795 22.1121 15.9056
274 3 20.1333 45.0010 31.7279
275 3 28.0070 29.9301 6.7471
276 3 3.0075 26.1639 43.7093
277 3 29.9387 38.4080 29.9694
278 3 48.1879 11.2182 3.5127
279 3 12.5278 30.1322 18.1012
280 3 6.3262 16.1397 29.5731
281 3 12.8288 48.4588 21.4809
282 3 11.7420 17.8154 15.9821
283 3 39.2500 40.8492 43.3761
284 3 31.2633 29.9726 10.6032
285 3 24.1090 32.0563 36.4803
286 3 23.1207 17.2008 31.2746
287 3 30.0009 19.0615 5.7492
288 3 22.8625 39.1968 1.8653
289 3 14.9867 0.4030 35.1172
290 3 9.4156 11.4141 1.5488
291 3 14.0067 8.8103 31.7891
292 3 7.1266 11.4244 32.0880
293 3 12.2013 4.9733 42.1737
294 3 7.8593 22.9094 3.7541
295 3 14.5938 0.8385 0.2710
296 3 30.9841 29.0488 28.5077
297 3 6.3190 1.3644 35.7315
298 3 43.2985 46.7553 22.8133
299 3 38.5957 45.8291 42.4342
300 3 47.0089 27.8283 4.7360
301 3 31.1651 20.2410 46.7134
302 3 13.9322 27.4197 47.5123
303 3 36.6271 8.8344 3.0071
304 3 32.1439 35.1744 35.3050
305 3 37.4522 11.6371 42.6550
306 3 48.3467 4.6749 4.4720
307 3 39.3869 34.8771 15.0009
308 3 6.8123 42.4235 32.0784
309 3 22.5866 24.9891 23.7526
310 3 16.6618 36.4688 18.8727
311 3 6.3318 5.1132 9.9589
312 3 23.9841 6.6844 16.9281
313 3 18.8538 48.2419 45.0752
314 3 42.7743 9.2440 42.0873
315 3 37.9852 45.7645 21.7764
316 3 5.7470 23.9981 32.5170
317 3 25.1229 49.9207 9.3627
318 3 22.1309 22.2274 29.8332
319 3 35.3767 0.2511 36.2822
320 3 42.9314 19.1368 34.0855
321 3 1.3883 3.4003 16.1621
322 3 19.4172 15.5386 40.4249
323 3 14.2464 32.6550 44.4858
324 3 47.1668 36.0241 4.6960
325 3 21.8688 1.5081 15.4551
326 3 20.1486 20.1171 28.9863
327 3 29.8778 31.7336 17.1063
328 3 35.6783 18.3853 41.9095
329 3 23.9671 48.2126 17.4328
330 3 47.9090 9.4474 48.0792
331 3 29.1335 24.4618 38.7433
332 3 38.2001 36.9166 16.4035
333 3 49.6213 32.8953 28.3605
334 3 47.8767 30.3454 8.1674
335 3 11.3156 19.1475 33.4209
336 3 18.9794 38.8346 48.9373
337 3 32.8693 8.6317 23.5978
338 3 31.3452 26.5265 48.2610
339 3 16.8587 31.2447 0.0109
340 3 39.7488 33.6400 9.2342
341 3 17.7683 44.7210 30.6033
342 3 31.2753 31.6026 17.7608
343 3 27.6048 24.2193 38.2627
344 3 2.8738 33.2753 37.6302
345 3 23.4594 1.2661 2.4251
346 3 15.3549 45.0688 5.2022
347 3 39.0473 38.6228 5.8506
348 3 22.4656 21.0124 13.7283
349 3 6.0362 35.0254 46.9733
350 3 16.9456 37.8159 7.2175
351 3 2.8769 46.2937 8.5630
352 3 30.4341 0.6593 39.4639
353 3 47.7580 5.8250 4.5488
354 3 40.9169 33.3626 24.2902
355 3 42.5591 31.6372 45.3414
356 3 8.1354 1.6072 2.2569
357 3 27.2282 31.4194 42.3433
358 3 20.6525 6.9134 21.8079
359 3 36.1846 13.7458 8.6748
360 3 40.4548 2.8192 0.7033
361 3 10.1014 35.5302 21.3667
362 3 27.3350 33.7431 28.6005
363 3 27.6702 39.4772 5.5125
364 3 17.4886 34.9625 38.8118
365 3 48.2822 14.4466 14.8235
366 3 31.5809 37.0429 9.4036
367 3 30.2269 14.2465 2.3199
368 3 37.0100 34.8886 45.9104
369 3 41.4134 30.6772 31.5948
370 3 45.4092 25.6744 10.6476
371 3 29.5310 24.0353 47.9665
372 3 46.4638 17.0907 27.5301
373 3 24.1113 33.6955 45.5689
374 3 27.4611 20.9973 40.5808
375 3 5.4159 38.5022 44.0121
376 3 14.2764 15.8915 9.4732
377 3 24.2205 17.4849 48.5085
378 3 18.3491 20.0114 49.4836
379 3 40.3117 30.6529 4.6921
380 3 19.0049 38.7961 26.5498
381 3 26.5061 28.5224 22.9812
382 3 46.4336 43.7446 25.4202
383 3 1.5480 15.9619 11.7989
384 3 30.8061 45.0964 14.2200
385 3 2.4723 21.1489 21.6089
386 3 33.6594 10.7335 17.5619
387 3 37.2776 13.3362 1.9914
388 3 14.2518 14.9960 10.3078
389 3 47.0008 14.7834 27.6323
390 3 40.1220 13.7506 34.3514
391 3 40.1834 42.4068 21.9451
392 3 6.2135 11.8959 27.3620
393 3 13.6168 22.5998 33.6836
394 3 11.1302 21.3767 40.9802
395 3 8.6942 44.6380 10.3378
396 3 11.0758 12.4192 35.0033
397 3 1.3360 28.4928 17.0176
398 3 39.6500 36.2363 2.4547
399 3 5.7764 9.8190 9.8247
400 3 25.8987 16.6716 23.7399
401 3 8.4958 31.0600 28.6090
402 3 23.2088 7.1526 21.9378
403 3 28.1559 20.2157 45.1168
404 3 6.0165 8.7696 24.7479
405 3 3.5427 48.4983 29.9895
406 3 31.2039 37.9533 46.2223
407 3 25.5335 24.8328 30.8913
408 3 21.3355 26.5532 26.5387
409 3 29.3457 42.6758 11.3057
410 3 7.5443 9.8146 27.2953
411 3 27.3790 29.9579 44.6996
412 3 48.5424 22.6669 11.4283
413 3 20.3030 4.4748 45.2663
414 3 41.9915 23.1197 37.2350
415 3 30.5274 4.6026 22.3300
416 3 2.3452 9.0083 33.5386
417 3 25.3782 46.7500 25.8666
418 3 19.2041 36.2064 16.0192
419 3 3.2274 45.5380 8.1695
420 3 15.9855 42.0436 30.2007
421 3 32.9589 41.0197 22.0084
422 3 41.5694 8.2269 7.7361
423 3 46.7038 16.9970 29.7605
424 3 40.8530 33.0045 11.9347
425 3 4.3341 24.1362 5.5747
426 3 18.0728 16.8789 33.7495
427 3 31.7990 11.3691 22.5983
428 3 34.7095 13.4610 28.0008
429 3 39.5944 19.3875 42.0689
430 3 25.2537 37.0961 41.1254
431 3 13.8985 40.9071 42.3937
432 3 48.4714 37.6379 30.8512
433 3 11.5572 43.6934 16.0421
434 3 8.9124 10.4744 40.3024
435 3 37.0529 17.0533 39.9338
436 3 29.1220 30.2354 42.5876
437 3 2.7514 42.2327 16.6162
438 3 27.3809 38.9138 22.1055
439 3 29.0809 17.4889 8.0644
440 3 29.8624 6.1584 0.3784
441 3 10.6341 37.0001 10.8620
442 3 44.6321 13.0834 3.3836
443 3 46.0488 46.6338 45.5027
444 3 33.8209 21.3175 40.0825
445 3 42.4366 41.2143 31.1692
446 3 16.5156 48.8745 45.4855
447 3 49.9129 14.2870 37.9717
448 3 15.7539 16.4631 1.4736
449 3 31.0251 39.0955 47.5764
450 3 12.4438 11.5843 35.3996
451 3 24.8449 46.0076 24.7146
452 3 27.5564 15.8556 12.3189
453 3 44.6684 39.4240 30.9409
454 3 19.5899 43.1282 32.0899
455 3 30.4035 32.7614 17.1318
456 3 12.0349 46.0724 23.4886
457 3 28.8633 33.8684 43.7121
458 3 29.6127 49.9249 26.6404
459 3 24.4295 19.8693 48.8734
460 3 21.0121 16.6143 38.2143
461 3 22.4188 3.8929 40.7892
462 3 43.1214 19.9658 32.7087
463 3 18.3255 26.4992 22.2650
464 3 21.9670 0.8374 37.6657
465 3 24.5135 9.8350 2.2066
466 3 47.6522 32.3952 26.0688
467 3 24.8999 19.3927 6.4467
468 3 40.8957 23.7568 17.1445
469 3 26.4619 28.6029 39.2876
470 3 48.4868 23.1897 18.1342
471 3 34.9252 14.1391 39.6888
472 3 46.9779 27.1121 28.4589
473 3 17.7287 48.8896 22.0274
474 3 43.3601 7.0592 40.1579
475 3 25.8330 10.2351 44.2281
476 3 14.9602 33.2880 4.8113
477 3 46.6585 44.9014 12.7026
478 3 46.1814 35.8577 35.7199
479 3 34.3682 29.9147 20.7439
480 3 50.2185 33.2723 17.2486
481 3 19.1744 22.4161 22.0295
482 3 28.8673 38.4050 33.2531
483 3 48.2938 25.2811 1.7346
484 3 33.1292 2.0636 46.8246
485 3 44.1927 22.8878 36.5372
486 3 46.9134 10.6902 17.3992
487 3 16.2590 3.3427 41.2594
488 3 23.5191 19.2212 2.8036
489 3 22.3959 1.7791 49.4082
490 3 11.5785 14.2194 36.5672
491 3 44.6454 36.3895 17.8400
492 3 46.4864 8.0772 4.0597
493 3 49.2231 26.3421 24.5724
494 3 26.8499 20.6867 29.4038
495 3 40.9038 16.8920 24.3588
496 3 27.9793 28.7790 18.2441
497 3 32.6436 16.2215 34.3045
498 3 47.9075 26.1362 15.9845
499 3 49.7034 47.9685 28.9921
500 3 9.5869 5.4104 38.8695
501 3 14.2227 23.5321 25.8653
502 3 25.4280 32.4578 1.2312
503 3 0.7373 42.1981 23.0645
504 3 32.4422 30.6142 23.3657
505 3 7.1834 29.3811 20.0225
506 3 23.6418 11.7943 7.9432
507 3 14.0492 2.7986 32.3422
508 3 29.8598 19.5253 24.4647
509 3 0.2457 25.6731 45.0703
510 3 37.1965 25.7689 1.3347
511 3 37.6574 2.6783 13.6479
512 3 20.0851 16.2706 38.6204
513 3 6.1604 48.7244 29.6624
514 3 10.1178 21.3683 5.2293
515 3 19.7588 44.5204 16.9392
516 3 9.2345 47.0844 15.8288
517 3 17.7732 44.3099 7.1189
518 3 20.9681 16.7776 7.9161
519 3 26.2648 9.8794 13.5467
520 3 29.9966 45.7705 29.1662
521 3 42.8389 31.9226 24.9426
522 3 8.8213 8.5980 49.3947
523 3 35.5843 5.6520 39.4635
524 3 42.6812 38.0399 41.0958
525 3 31.0134 30.1171 9.2267
526 3 46.9071 9.9100 2.1585
527 3 30.4864 32.0422 41.3172
528 3 6.2369 24.3321 47.3473
529 3 33.8172 13.9591 28.1432
530 3 30.3618 24.9719 13.9635
531 3 3.9980 39.9420 4.5001
532 3 1.5501 3.2521 15.5275
533 3 6.6178 24.1748 7.3710
534 3 28.0400 33.8671 39.1480
535 3 10.1286 11.9873 12.3102
536 3 26.0122 22.8780 19.5906
537 3 34.7322 4.7028 38.6617
538 3 27.2231 16.9058 1.5710
539 3 32.7989 43.6122 28.7410
540 3 30.5383 42.3618 37.3320
541 3 35.8998 25.1219 31.0022
542 3 21.1760 33.2923 27.6812
543 3 28.5453 36.4275 40.7853
544 3 38.4981 17.0027 34.1108
545 3 14.9093 8.3214 12.4528
546 3 38.6965 11.2649 9.7335
547 3 34.7539 39.2374 29.7711
548 3 14.7447 2.3792 20.3275
549 3 49.3173 22.5704 4.7531
550 3 12.0578 32.5328 21.7078
551 3 26.8169 32.2891 26.8863
552 3 26.5536 12.1406 48.5446
553 3 41.4368 13.2775 46.1113
554 3 44.3396 3.3477 21.5998
555 3 18.8118 6.3032 1.9765
556 3 7.8289 5.9227 49.3588
557 3 26.3829 45.0835 45.0932
558 3 9.3017 14.3886 39.0117
559 3 28.3458 40.1312 44.7982
560 3 6.5356 13.6735 31.5018
561 3 47.2768 9.2936 18.9349
562 3 7.8890 35.6413 31.5809
563 3 8.0728 41.2060 8.9154
564 3 42.9232 45.7120 43.4546
565 3 46.2755 8.7637 4.4450
566 3 2.1916 15.7672 32.4273
567 3 40.3970 14.7656 39.1901
568 3 19.9444 40.4817 26.2391
569 3 4.8452 8.1132 16.2258
570 3 18.4329 32.9336 48.3150
571 3 15.0258 21.1931 36.1378
572 3 7.3325 47.8072 9.7615
573 3 35.8232 18.6908 48.0739
574 3 22.5630 31.9122 33.6723
575 3 39.2268 6.4083 40.0866
576 3 44.5506 33.3129 1.5342
577 3 48.7005 18.0471 6.1397
578 3 18.6380 40.8033 26.4512
579 3 50.4176 45.7751 29.1038
580 3 8.2308 34.8606 16.7435
581 3 10.9329 48.4701 47.2582
582 3 3.9680 43.6224 13.9215
583 3 5.0843 16.0528 1.1970
584 3 12.7607 30.1703 12.6505
585 3 32.7967 47.2679 16.3991
586 3 8.7462 15.7991 39.8056
587 3 13.3872 35.0654 31.2637
588 3 34.4047 14.2251 27.1217
589 3 38.6181 48.7621 19.9237
590 3 48.7075 12.5111 18.2834
591 3 11.7030 49.3279 22.6331
592 3 28.0469 12.7081 2.8981
593 3 36.6691 49.5582 18.6520
594 3 45.2444 41.0659 12.5895
595 3 8.3526 8.5185 12.4029
596 3 11.5807 38.1759 32.7144
597 3 4.5210 40.9892 5.3061
598 3 31.0975 40.0214 2.9042
599 3 5.8494 36.2491 26.1813
600 3 10.0344 46.3908 40.7186
601 3 9.6298 42.4850 39.6233
602 3 44.9878 30.5980 47.2438
603 3 33.5354 43.0300 1.6032
604 3 21.3149 26.3863 4.3566
605 3 18.4830 45.0635 39.0890
606 3 40.7305 2.0193 17.5322
607 3 11.7775 6.8226 2.5485
608 3 22.2486 20.1160 8.7227
609 3 3.0354 37.2745 10.6885
610 3 13.1927 19.4038 17.3285
611 3 48.6756 4.8584 26.6142
612 3 25.9350 16.5389 42.0370
613 3 28.6367 14.3576 10.8336
614 3 18.7696 33.1736 4.5995
615 3 44.5496 33.5751 4.2100
616 3 40.4826 9.0017 45.7327
617 3 14.1451 16.6176 21.4226
618 3 44.3113 45.9523 49.4250
619 3 11.0414 15.0442 16.9323
620 3 25.3009 40.1621 33.5687
621 3 0.6314 37.6835 31.9569
622 3 5.6723 11.8602 37.0046
623 3 0.5827 7.1862 25.0748
624 3 31.1042 41.7666 18.9615
625 3 32.6705 9.2866 9.0229
626 3 41.9791 24.2319 6.2997
627 3 29.1637 11.7071 26.1318
628 3 48.2464 25.0392 30.4061
629 3 44.9927 37.5910 15.4346
630 3 13.7826 26.2232 13.3540
631 3 25.9532 33.3473 36.9159
632 3 22.4920 47.3110 14.2989
633 3 20.6305 40.8089 15.3252
634 3 21.0149 24.0529 32.0269
635 3 23.0956 46.5736 4.8569
636 3 5.8684 3.1397 11.4443
637 3 44.3587 48.8488 16.2980
638 3 31.6393 17.0487 36.7019
639 3 12.1228 26.0795 3.8240
640 3 4.7196 26.0018 14.7300
641 3 17.6258 6.5408 47.9202
642 3 40.1680 6.8389 36.5412
643 3 43.6679 45.0469 43.9427
644 3 27.1516 33.8680 41.5459
645 3 31.1768 23.3743 40.1022
646 3 30.7930 7.2692 12.9273
647 3 20.9907 40.6431 46.8307
648 3 18.1364 7.7421 32.7270
649 3 2.0178 19.2279 34.3141
650 3 37.6105 14.4355 30.2439
651 3 23.5728 14.2236 48.3583
652 3 10.2832 11.6809 1.1280
653 3 34.1332 36.7276 24.5153
654 3 20.8085 48.2130 49.6929
655 3 17.3624 4.6533 18.3648
656 3 41.5359 27.6260 27.4998
657 3 5.7643 49.2911 31.3740
658 3 8.6011 2.9779 4.8124
659 3 9.6098 20.3711 18.8945
660 3 3.9198 42.7992 32.0700
661 3 22.4491 39.7558 6.7978
662 3 23.6481 16.9661 41.3165
663 3 29.7403 1.7923 41.0117
664 3 45.4164 47.2381 44.2811
665 3 22.4116 25.1608 18.3312
666 3 17.8159 18.1443 10.6757
667 3 35.0182 34.9579 40.5685
668 3 8.2311 8.8788 12.9622
669 3 6.3567 48.1810 25.3861
670 3 16.9787 20.3630 30.9875
671 3 32.4971 10.0227 43.7064
672 3 1.6682 15.6236 35.1800
673 3 17.4031 39.2597 9.4822
674 3 10.2490 36.9029 27.4729
675 3 27.4144 12.5775 9.5909
676 3 32.8906 28.3322 3.2744
677 3 34.2712 11.5911 33.1569
678 3 37.5400 23.8031 0.0476
679 3 46.4341 39.5700 18.3454
680 3 31.5194 26.3159 7.3557
681 3 4.6747 42.7075 30.2547
682 3 5.6570 24.9750 24.7572
683 3 24.7932 14.7289 21.7723
684 3 2.2229 8.7900 0.0195
685 3 18.0673 38.0126 44.3324
686 3 1.2525 22.3059 39.7955
687 3 14.7179 29.0160 8.0477
688 3 10.2077 26.9921 46.8634
689 3 36.9109 25.7530 28.9134
690 3 17.3404 5.6293 1.7934
691 3 2.8126 15.0875 31.5836
692 3 6.9027 17.4185 29.4766
693 3 23.4221 43.9734 15.5592
694 3 41.7581 21.8711 30.3552
695 3 37.7646 39.7280 39.6482
696 3 35.6334 11.2657 11.4075
697 3 48.0073 0.0992 14.6293
698 3 19.1004 41.1076 46.2406
699 3 42.4983 13.9942 33.9288
700 3 24.2060 6.9991 25.6924
701 3 5.4375 35.7566 45.2536
702 3 13.9543 9.4037 29.0572
703 3 39.4331 26.9427 5.3495
704 3 34.3715 14.3301 8.5259
705 3 4.5986 34.2120 38.8629
706 3 8.0866 44.2266 38.7568
707 3 -0.2618 6.0611 5.6449
708 3 5.7032 39.9115 19.2656
709 3 43.8852 12.2280 40.4346
710 3 46.0348 10.9751 10.5519
711 3 11.1925 44.0266 41.4288
712 3 3.4745 30.1711 31.6316
713 3 23.6162 38.5905 7.1396
714 3 2.4334 33.8827 0.6579
715 3 41.7442 45.8169 8.0375
716 3 18.5945 20.2206 14.1893
717 3 21.3920 38.6392 9.7740
718 3 18.1815 32.0014 18.6495
719 3 44.4436 20.5976 37.7582
720 3 20.7550 40.6240 28.9959
721 3 11.8346 47.6361 30.8233
722 3 15.8586 12.0168 35.1179
723 3 25.7649 1.0406 33.9004
724 3 30.1047 31.6893 4.0250
725 3 6.3239 30.2198 7.6218
726 3 44.0763 22.6593 7.3759
727 3 35.8040 45.5694 10.9576
728 3 13.3523 21.1875 33.3440
729 3 36.8236 1.7644 31.1720
730 3 48.7493 32.0166 23.3037
731 3 45.5884 25.1460 1.6629
732 3 39.2354 35.5181 32.3885
733 3 13.1761 34.7335 17.3104
734 3 27.1800 21.5122 0.9736
735 3 40.5406 8.4510 33.5491
736 3 9.5882 1.9008 15.3846
737 3 4.6584 33.3537 47.4128
738 3 11.9892 11.8432 6.6118
739 3 46.9732 13.5042 47.0441
740 3 16.3564 5.4368 9.4411
741 3 34.7917 5.5395 27.3451
742 3 47.8787 12.8174 24.0741
743 3 11.0231 32.7932 38.1017
744 3 40.5139 3.4858 14.4872
745 3 4.8815 14.3295 48.6289
746 3 27.7010 13.0258 27.8971
747 3 21.3191 47.0546 27.3768
748 3 19.1718 40.5926 7.4645
749 3 26.2131 22.5844 40.0032
750 3 33.3104 22.9507 23.5259
751 3 34.0194 12.2233 41.5446
752 3 47.8530 24.3215 25.2043
753 3 10.0785 5.6142 38.2565
754 3 20.0016 3.5361 35.6024
755 3 3.5356 -0.0788 14.2287
756 3 44.6167 32.1631 42.4699
757 3 39.7351 15.7418 17.7996
758 3 27.3435 14.9510 42.7963
759 3 29.1742 2.1065 41.7042
760 3 8.7470 37.2732 34.0123
761 3 3.8124 5.0987 3.3398
762 3 4.3393 41.4108 32.7086
763 3 30.3822 38.5033 49.3548
764 3 43.6096 26.5194 28.4387
765 3 45.9100 16.0822 31.9782
766 3 27.5561 10.2965 21.5121
767 3 4.7196 31.4937 29.0859
768 3 46.4722 44.2409 45.1287
769 3 32.7721 41.8963 35.5960
770 3 19.8161 48.0379 39.5448
771 3 31.2263 48.9042 31.0277
772 3 23.6768 4.8711 6.7528
773 3 37.1644 1.1173 43.1042
774 3 32.2084 29.6514 9.8011
775 3 31.6819 16.0427 37.8066
776 3 10.7358 38.2295 8.3889
777 3 21.7287 14.3666 44.3893
778 3 3.3974 18.6059 24.5305
779 3 14.1567 29.2491 38.3491
780 3 22.4183 36.5154 28.7308
781 3 24.8156 9.4392 31.3416
782 3 35.4573 5.5203 27.2381
783 3 41.3749 30.2395 23.5916
784 3 4.0572 30.7808 12.4396
785 3 40.2060 17.0939 13.3668
786 3 50.3910 9.1782 21.0784
787 3 37.6643 7.5172 42.5153
788 3 43.2711 1.1526 43.2784
789 3 49.6931 26.0597 10.7449
790 3 36.5971 6.6703 21.5596
791 3 44.4855 10.4268 28.3374
792 3 35.8690 49.5509 15.9664
793 3 22.7368 2.1377 3.8943
794 3 15.2339 3.5678 46.4278
795 3 23.3601 36.2698 9.8810
796 3 8.3838 27.0633 30.9621
797 3 -0.2900 37.0215 44.4990
798 3 26.1843 33.0209 3.6510
799 3 14.3539 36.9821 37.3418
800 3 35.6106 12.3066 43.5270
801 3 10.7911 35.0332 46.8188
802 3 44.6429 40.9142 49.6502
803 3 25.8817 15.8367 7.4341
804 3 0.4606 29.2193 4.6581
805 3 18.6277 50.9036 21.3878
806 3 33.6658 8.6329 0.7110
807 3 26.9322 27.6895 42.5492
808 3 19.5710 6.7246 14.7035
809 3 46.9524 45.4983 14.9125
810 3 6.7077 3.8299 13.1482
811 3 35.2272 39.3165 26.9635
812 3 41.6411 38.3040 35.9147
813 3 25.3005 20.1593 19.9752
814 3 19.7643 32.5615 24.9843
815 3 3.3549 4.4411 23.8087
816 3 25.6996 10.0473 9.8344
817 3 30.0388 19.1955 34.1751
818 3 3.7738 23.0592 13.2193
819 3 13.4991 28.4878 17.3719
820 3 22.5812 48.2445 19.3257
821 3 40.7434 29.4841 20.9868
822 3 49.1519 38.1538 12.6461
823 3 24.7333 27.5263 19.3320
824 3 48.3906 21.8615 38.8061
825 3 28.5918 11.3625 41.7877
826 3 16.9977 20.1218 28.7096
827 3 24.5043 48.9755 35.5595
828 3 41.0444 11.0338 9.5395
829 3 40.5121 30.3571 9.4882
830 3 31.3753 30.9010 18.1873
831 3 21.7740 48.6460 22.5197
832 3 27.4743 23.3054 17.5291
833 3 27.2193 8.9145 6.3651
834 3 39.5653 43.1958 44.0210
835 3 28.7940 17.7939 0.0981
836 3 26.5207 35.6857 15.6421
837 3 22.5912 36.6409 3.0805
838 3 42.2616 7.1422 43.3892
839 3 37.9236 12.0902 37.6398
840 3 19.5544 16.3623 6.7774
841 3 27.8474 30.2452 31.2855
842 3 5.8662 41.8176 20.6392
843 3 18.2835 24.1168 17.1409
844 3 5.8997 8.1151 13.7877
845 3 43.8482 30.8198 23.5321
846 3 29.7692 18.2594 34.7421
847 3 23.0083 26.2949 12.0362
848 3 40.1054 23.5891 45.4702
849 3 17.2103 37.5873 15.4487
850 3 20.4163 30.7277 0.6054
851 3 32.2540 39.7701 34.8843
852 3 3.9421 20.1690 39.0482
853 3 24.6233 26.6966 6.7605
854 3 22.4452 2.9531 35.9454
855 3 30.9318 1.4429 18.7929
856 3 38.8146 27.6097 38.5828
857 3 12.1453 30.5707 33.8549
858 3 24.9369 35.8144 41.9998
859 3 19.9846 33.1161 35.1034
860 3 47.1191 36.8855 11.9946
861 3 14.8665 27.8875 7.2393
862 3 37.8506 17.7719 44.1151
863 3 25.4602 40.5876 34.7044
864 3 5.8595 38.6496 0.3357
865 3 26.0253 16.2440 3.4843
866 3 41.1845 17.4293 28.0487
867 3 30.9270 43.7793 20.8690
868 3 8.0301 21.8259 0.2569
869 3 40.2332 9.2753 36.7405
870 3 19.4814 8.0353 35.2437
871 3 2.9719 24.3108 38.2379
872 3 2.0299 -0.1924 35.7263
873 3 6.1161 42.8106 22.9191
874 3 24.3532 13.3453 33.5805
875 3 7.3455 48.8995 12.6137
876 3 41.0111 6.9099 6.0058
877 3 44.7631 30.5180 30.5233
878 3 38.1142 45.5806 0.8833
879 3 10.5383 20.1840 5.7448
880 3 29.1138 38.7600 0.6879
881 3 23.0155 47.8180 17.3468
882 3 35.9012 44.0639 6.8836
883 3 16.6107 36.9935 12.7256
884 3 29.9832 37.7061 33.8610
885 3 3.5917 47.8638 35.7345
886 3 13.8253 26.6620 44.4245
887 3 39.8129 32.6590 48.9849
888 3 6.4557 8.2463 14.5844
889 3 43.4707 33.5756 47.1287
890 3 38.0377 29.5534 33.0172
891 3 35.7006 44.3131 49.1524
892 3 44.1711 42.4097 19.4147
893 3 28.1718 15.0395 17.9188
894 3 30.1414 44.2668 0.5128
895 3 30.1185 25.4325 7.0078
896 3 11.7551 20.5468 25.9713
897 3 32.0716 16.9124 30.4698
898 3 15.7963 20.4940 49.6324
899 3 3.9602 1.1786 20.1608
900 3 29.8975 23.1954 7.1434
901 3 46.1237 2.0437 37.8019
902 3 4.6002 8.0453 22.6084
903 3 13.8369 37.3340 16.7960
904 3 8.9498 35.8118 35.8893
905 3 36.5931 48.5547 49.4292
906 3 43.1753 45.7092 13.2526
907 3 36.8702 4.7054 5.1263
908 3 6.4119 41.0509 27.6527
909 3 43.3798 29.7198 22.3498
910 3 7.3058 4.1747 21.5644
911 3 45.5873 38.7598 30.9060
912 3 33.3475 36.4083 18.3754
913 3 11.5346 12.5281 49.9817
914 3 2.6831 29.8566 2.5669
915 3 42.4855 32.8969 29.5193
916 3 44.1872 49.2561 35.2445
917 3 36.4750 37.3894 43.2547
918 3 40.6196 8.3210 12.7169
919 3 16.0646 38.0528 37.7067
920 3 47.8377 12.7326 32.0198
921 3 4.6128 6.3210 10.5078
922 3 18.7317 11.0993 37.5208
923 3 1.2582 22.3473 18.1313
924 3 24.1289 26.1174 19.8859
925 3 17.1934 6.2065 12.0887
926 3 37.9031 26.7682 17.6019
927 3 0.8112 47.8487 37.5475
928 3 13.8678 30.2972 22.5946
929 3 7.0334 4.0378 46.4349
930 3 4.5653 24.8977 13.5681
931 3 5.3780 9.7177 2.8982
932 3 25.3665 23.4289 15.4314
933 3 7.4935 3.4634 35.1021
934 3 22.1737 3.7140 36.1481
935 3 44.0727 13.5895 29.9342
936 3 43.2800 37.8952 19.9203
937 3 42.9597 6.7581 36.4594
938 3 16.3872 36.7037 22.8469
939 3 10.6712 12.1962 10.0420
940 3 45.8704 14.6046 1.5147
941 3 34.9555 20.5816 19.9802
942 3 44.8669 47.6379 32.6394
943 3 34.1826 8.0025 11.6507
944 3 2.0786 27.0255 27.9559
945 3 15.7289 5.8415 3.0550
946 3 15.3856 14.5366 37.1431
947 3 20.0241 32.8809 16.1303
948 3 32.0865 4.6997 37.1563
949 3 11.7875 15.0611 6.9278
950 3 43.7786 42.9975 18.0452
951 3 10.9252 49.1627 41.4567
952 3 44.5572 48.9747 19.2310
953 3 5.5394 32.4740 3.6907
954 3 33.2933 21.5964 4.8327
955 3 43.2063 19.6128 14.2049
956 3 22.3049 7.6147 29.8682
957 3 40.4187 23.1933 2.6054
958 3 13.1371 19.7694 20.6327
959 3 0.8220 10.6203 25.3772
960 3 46.2332 16.0708 39.4684
961 3 28.7368 8.3179 28.2394
962 3 22.4879 37.2089 1.3417
963 3 1.2417 3.1624 15.5718
964 3 19.1622 31.4791 25.3086
965 3 20.8314 17.0709 18.6315
966 3 12.1408 7.2261 43.8086
967 3 27.6314 26.8892 26.5534
968 3 36.0686 1.3878 47.2982
969 3 5.2287 25.6515 15.0603
970 3 18.0115 38.1984 23.0746
971 3 15.6554 1.8242 23.9228
972 3 40.4032 20.1528 24.6393
973 3 33.1533 9.4171 35.9131
974 3 19.1126 23.7670 13.1443
975 3 35.9178 24.9148 4.7335
976 3 40.2829 23.1967 35.1775
977 3 35.1551 18.6064 8.9743
978 3 44.5916 41.5966 39.4349
979 3 34.3762 4.0399 44.0450
980 3 17.6687 30.4710 31.2809
981 3 19.3031 21.1318 43.4346
982 3 33.5456 9.8058 17.2836
983 3 22.9870 5.1768 37.9929
984 3 34.6612 42.1063 2.4792