ITEM: TIMESTEP
1
ITEM: NUMBER OF ATOMS
1500
ITEM: BOX BOUNDS pp pp pp
0.0 50.0
0.0 50.0
0.0 50.0
ITEM: ATOMS id type x y z glimmer_uq_std pca_drift_bias
1 3 41.5963 9.3259 40.7043 -1.3571 0.1298
2 3 3.3430 3.3825 47.1183 -0.0799 -1.6624
3 3 14.5022 18.1737 23.2853 0.0142 -0.0767
4 3 4.6550 28.0317 8.7000 1.2587 0.4158
5 3 47.9379 21.1878 37.4051 -0.2610 0.4566
6 3 0.4064 2.5451 28.0525 0.1636 0.2083
7 3 32.3500 28.7584 42.4798 -0.8628 -1.6739
8 3 1.4606 40.6968 15.2262 0.3250 0.1315
9 3 40.1917 2.6101 13.6463 -0.2603 -0.0382
10 3 9.0654 37.9439 33.1581 0.1373 1.8826
11 3 38.3747 34.2381 30.2300 1.0528 -2.0132
12 3 5.0023 15.9304 7.5763 0.9916 0.1655
13 3 19.8941 44.4088 6.3359 1.2077 -0.6236
14 3 25.1567 9.4450 9.5418 1.0765 -0.6580
15 3 42.2195 28.3243 37.3270 0.8155 1.9683
16 3 5.8137 10.3904 45.6951 -1.6580 0.7426
17 3 27.8496 2.2541 0.4679 -1.2324 -1.5774
18 3 9.6536 7.5676 22.9560 -0.5706 0.5103
19 3 44.6183 10.7695 11.6969 -0.4652 -0.3084
20 3 13.8490 16.4742 44.1588 -0.9270 -1.3557
21 3 22.0949 40.7700 34.0641 -1.2720 0.0130
22 3 25.4626 3.3166 1.3323 0.7729 0.4537
23 3 19.3439 12.5772 17.4228 -0.3501 -0.4415
24 3 0.1687 30.4529 20.9281 -1.0254 0.1939
25 3 8.1139 10.8179 30.7461 -0.6873 -0.5899
26 3 45.9512 42.0699 47.6147 0.0838 0.4730
27 3 4.2176 24.9042 1.1852 0.8295 -0.8944
28 3 1.2195 40.8742 42.4482 -0.2241 0.4918
29 3 32.8995 12.1975 28.7288 0.5406 -0.4024
30 3 45.2053 4.9862 40.3994 -0.6692 -0.3959
31 3 2.7944 2.5305 31.3756 0.7588 -0.8661
32 3 2.5137 46.8169 4.1120 -0.5163 -0.7623
33 3 39.9005 40.2215 15.8974 -2.2848 -0.2568
34 3 20.7225 10.3337 8.7492 -2.0627 1.4378
35 3 22.9195 42.1236 8.8759 -0.5567 -1.2028
36 3 48.8061 14.1276 43.9667 0.1049 1.4274
37 3 0.8630 44.4694 22.3774 0.7061 0.9310
38 3 20.1359 21.9059 7.1136 -0.7096 0.3074
39 3 23.9380 49.8847 29.8201 0.0521 -0.9230
40 3 26.6058 44.8190 35.0377 0.3841 -0.2829
41 3 10.9351 5.4042 45.0171 0.7062 -1.2886
42 3 43.4952 31.0605 5.5328 0.6241 -0.2919
43 3 38.3257 48.9009 26.2415 -0.2696 0.3703
44 3 5.8284 0.3533 26.9328 -0.3498 0.2414
45 3 11.3967 42.0821 19.7074 -0.0920 -0.1530
46 3 39.8912 43.9612 18.4423 -2.4400 0.0694
47 3 44.3466 37.3451 23.8911 -0.5326 -0.2217
48 3 1.8095 38.4334 17.1225 0.1106 0.7506
49 3 23.4898 1.0031 2.1749 0.3008 -0.2631
50 3 6.5283 8.5922 47.0165 0.3299 0.5141
51 3 39.0338 19.3063 31.3361 -0.2450 0.9754
52 3 36.4092 13.5921 3.2345 0.2342 -0.3876
53 3 5.6789 16.4303 13.0863 -0.7891 -0.7300
54 3 14.7742 29.5414 16.9191 -0.1588 -0.6799
55 3 10.1462 22.1943 33.3529 0.8333 1.5492
56 3 20.0971 33.4285 1.3492 -1.6393 1.0457
57 3 26.3251 26.8650 21.3750 -0.6010 0.2055
58 3 28.6698 25.7642 42.1172 -0.9958 -0.3567
59 3 20.5235 19.4992 6.8264 0.4761 0.7433
60 3 2.7464 27.9663 0.0292 0.4950 1.6639
61 3 30.7526 41.0015 37.0994 -0.5116 -0.9049
62 3 13.3536 34.0157 37.5554 0.4330 0.3890
63 3 1.2265 21.8092 11.9390 0.9696 -0.1157
64 3 40.8891 46.4514 21.1088 0.1092 0.7530
65 3 36.9632 49.5343 43.8534 -0.2039 0.5703
66 3 34.9376 22.5974 38.1234 0.5618 -0.4777
67 3 1.9647 20.5535 40.5701 -1.3948 -0.0327
68 3 42.2740 33.7647 40.2762 0.2292 0.5708
69 3 24.4809 33.9369 18.4452 1.2665 -1.8304
70 3 22.9172 46.6750 47.5662 -0.5646 -0.2850
71 3 34.8254 24.9430 39.0387 -0.3839 -0.1006
72 3 42.0604 37.0981 30.7613 -0.0384 -0.1514
73 3 33.1721 29.5578 11.7313 0.5236 0.0236
74 3 33.3203 48.4217 34.3582 -0.2369 1.0293
75 3 22.7500 4.4573 48.9195 -1.2337 0.8825
76 3 42.5968 30.8726 2.5423 -2.0846 0.8653
77 3 45.8623 38.6887 37.3165 -1.1691 1.8055
78 3 28.8994 29.5485 34.0943 -0.0773 -0.2491
79 3 47.1405 15.4840 42.3235 -0.1162 -0.5388
80 3 13.2526 40.2111 41.0059 1.2395 -0.1448
81 3 42.2393 39.7554 26.4019 -1.1440 2.2625
82 3 48.4198 43.1971 43.1438 -0.3375 -1.6796
83 3 44.4021 4.5005 12.2036 1.0616 0.7920
84 3 39.4970 28.9344 39.2451 -0.0339 -0.4577
85 3 17.4527 28.7669 42.3603 0.4475 -2.3656
86 3 2.1704 21.2258 42.8780 -1.5377 0.6156
87 3 23.1773 32.9056 37.9456 0.1200 -0.8964
88 3 39.6122 39.8242 32.1376 0.0390 -0.9724
89 3 44.6807 13.8662 9.0497 -0.4071 -0.6239
90 3 43.4171 1.7171 10.3221 0.6280 -0.8358
91 3 32.7130 18.0424 28.2094 -1.2866 -0.0456
92 3 46.4648 38.1974 5.2429 -0.0862 1.7395
93 3 33.9250 48.9737 38.0353 0.1201 1.0111
94 3 48.1722 40.0814 44.4861 -0.2643 0.1176
95 3 41.4909 36.5250 17.4364 0.1859 0.2358
96 3 13.1788 38.5476 8.2168 -2.4882 1.3129
97 3 8.1968 39.5351 43.4156 -0.7965 -0.1467
98 3 6.2172 45.2977 29.7763 -0.6476 0.6137
99 3 9.0676 49.8363 12.7771 0.3592 0.0900
100 3 48.9649 29.0619 14.2889 -0.0312 -0.6537
101 3 36.2625 39.1638 4.5283 -0.5556 -0.5142
102 3 12.8770 21.1363 41.9223 0.2943 1.2155
103 3 19.8368 38.4890 44.8768 -0.9669 0.1021
104 3 33.8344 22.0091 23.4546 -1.6153 -0.2027
105 3 1.6769 38.6982 28.5234 -0.3341 -0.7875
106 3 17.6011 10.7635 47.4037 1.4767 1.1854
107 3 3.3695 8.0558 43.0877 0.5189 -0.8681
108 3 48.4846 12.6667 38.2108 -1.5750 -0.0885
109 3 14.0363 20.9483 2.1431 -0.7356 -0.4746
110 3 34.7858 30.9674 41.2970 -0.4593 0.9057
111 3 20.1461 22.0701 35.9233 1.0917 -0.7587
112 3 38.3118 10.7683 7.9317 0.5219 1.3491
113 3 14.1178 44.2431 21.0641 0.5221 0.1771
114 3 25.6272 6.5493 15.8856 -0.6044 -0.9570
115 3 15.2178 11.0355 42.7800 1.2418 -1.7209
116 3 43.6454 39.5415 36.7355 0.3677 -0.6650
117 3 45.4080 37.3323 36.7359 -0.5704 -1.1106
118 3 6.9747 11.9327 40.8074 1.2537 1.9779
119 3 6.2977 2.8776 35.5181 0.7446 -1.1791
120 3 16.9727 40.5973 30.2616 -1.0392 1.1310
121 3 16.1664 10.1942 15.7148 -0.8680 1.5481
122 3 4.5784 17.2923 16.7788 0.1251 -0.8473
123 3 39.1124 37.1220 5.7052 -1.1443 -0.3862
124 3 12.4672 7.9476 42.3320 -1.1170 -0.4873
125 3 16.9128 11.3797 27.3291 2.6799 1.4739
126 3 27.3447 9.6580 3.6598 2.0448 1.2844
127 3 40.5932 9.3398 36.9661 -2.0544 0.1767
128 3 13.7833 23.2824 16.4791 -0.6103 -1.3623
129 3 4.1674 21.9348 20.0965 -0.0397 -0.2999
130 3 10.5445 11.1538 40.8894 0.7292 0.8887
131 3 43.5124 13.5711 14.4201 -0.9499 -0.9992
132 3 35.2032 37.0608 0.4903 -0.2565 1.6182
133 3 17.7659 32.4324 26.5812 0.1619 -0.4140
134 3 24.9922 18.3339 13.4782 0.0047 1.1135
135 3 3.8497 23.6808 45.9307 -1.2300 0.3458
136 3 1.5886 12.5976 7.8590 -1.2149 -0.8061
137 3 41.4337 27.9597 25.9142 0.8430 0.8652
138 3 2.7455 30.6151 10.2541 -0.5848 1.0158
139 3 7.5202 36.2171 26.3506 0.6489 -0.0187
140 3 47.1911 33.6724 14.9503 -0.2338 0.3495
141 3 2.6927 1.8058 30.0637 -1.4319 -0.0905
142 3 34.0504 9.1661 20.1710 -0.4413 2.7405
143 3 34.8867 29.5984 13.4055 -0.1277 -0.9690
144 3 40.6503 43.1831 47.8595 0.4009 -1.1302
145 3 19.4355 38.1187 16.2285 0.0251 0.0466
146 3 34.8414 27.0242 37.1206 1.9780 0.2286
147 3 1.4879 8.9706 41.3125 1.1624 -0.6018
148 3 17.3897 19.1507 5.0697 0.0469 -0.2309
149 3 20.0434 30.1811 15.2184 -1.6656 1.1609
150 3 39.1427 32.8528 29.1335 0.3593 -0.9214
151 3 46.0887 27.4184 24.4604 -0.4160 0.8480
152 3 8.8936 37.6785 41.3389 -0.9995 1.6329
153 3 24.7606 39.9963 31.2673 -1.1276 -1.2390
154 3 13.2154 6.5258 32.5728 1.7009 -0.7364
155 3 9.8353 32.4874 42.1314 -0.5790 -0.3766
156 3 28.9632 19.4147 10.5703 1.4792 0.4793
157 3 2.4399 5.9023 31.9847 1.2199 1.2828
158 3 4.5862 42.4085 41.1633 -0.4087 1.4363
159 3 8.8441 42.9846 4.5216 -2.0417 -1.7966
160 3 35.3861 49.6622 23.4050 -0.6848 -0.4455
161 3 47.3776 11.0818 11.8766 1.0065 0.8498
162 3 11.9847 37.9997 39.4599 0.1872 -0.0797
163 3 16.9212 7.0726 39.9183 0.5984 -0.8928
164 3 7.2320 15.4859 37.4070 -1.5725 0.5517
165 3 44.1722 9.5063 11.3968 0.1318 -1.6126
166 3 7.1809 32.8324 4.3662 0.7942 -0.2637
167 3 33.5059 0.1024 7.6177 2.2723 0.2277
168 3 22.1563 2.2373 13.9051 -0.3837 2.2025
169 3 29.1956 28.4635 17.3235 -1.0566 0.1298
170 3 18.5587 27.5930 30.7886 2.1507 -0.8173
171 3 21.5097 0.2645 26.6737 0.6273 -0.9640
172 3 21.3572 37.2746 31.3467 1.3697 0.0858
173 3 43.4682 49.7305 0.3612 -0.7864 -0.5938
174 3 29.5741 38.4175 14.2626 -1.2250 0.2925
175 3 34.0957 8.7667 40.5482 1.2194 1.3805
176 3 22.9725 48.4944 39.5246 -1.0190 -1.1474
177 3 13.6485 21.2190 5.0886 0.4245 -0.3649
178 3 47.4860 4.6715 10.2720 0.2510 1.2998
179 3 26.9859 49.9523 26.6907 0.2311 -1.6067
180 3 48.4402 41.0587 43.4337 0.4045 0.5735
181 3 24.3184 43.6577 39.3577 -0.7918 -1.1659
182 3 12.9649 22.7925 41.0304 0.4756 -2.3463
183 3 44.2254 18.5304 22.1485 -1.2822 -0.0706
184 3 24.9119 3.3828 27.5770 -0.0930 1.2201
185 3 0.9597 21.3940 37.8081 -0.8889 0.3836
186 3 32.0169 36.1664 44.5426 0.1968 -0.9742
187 3 43.8472 16.7999 34.1354 -0.0548 1.1910
188 3 28.3867 2.9872 18.5703 -0.0147 0.0811
189 3 23.8964 26.0833 11.2040 -0.2930 1.1695
190 3 31.5303 16.3695 35.5672 0.5281 -1.5305
191 3 21.1956 30.9545 14.4881 0.6024 0.1561
192 3 38.5653 29.0074 46.3943 1.0625 0.2493
193 3 26.4637 5.2354 32.2543 -1.0703 0.7309
194 3 32.6541 14.2289 37.2003 0.6753 -0.9174
195 3 35.0842 5.9381 35.3306 -0.2530 -2.3036
196 3 47.4312 0.1495 3.8619 1.1285 1.4544
197 3 35.1070 26.4318 11.2121 0.4234 -0.3849
198 3 19.3016 41.1891 18.2274 1.7917 -0.3407
199 3 26.2666 37.8088 31.9758 -0.4331 0.7763
200 3 41.1620 20.0100 35.9742 0.7702 0.0493
201 3 24.7414 34.7992 1.2911 -0.4433 0.3927
202 3 0.3030 3.9954 5.9578 0.7508 -0.1922
203 3 20.3480 18.0523 6.1058 1.5854 0.5222
204 3 29.9578 47.4155 19.7533 -0.1712 -1.8421
205 3 47.5965 17.6459 35.5336 0.8460 -0.0040
206 3 23.6714 10.1312 43.7767 -1.3703 -0.3535
207 3 1.3482 12.0282 47.4438 0.5192 -1.2941
208 3 37.2618 0.8454 28.4916 0.0491 -0.2211
209 3 14.5379 9.0944 33.3974 -0.9116 1.4317
210 3 19.7130 3.0258 11.5091 -0.2131 -1.6727
211 3 11.6511 34.3969 11.2314 1.1739 -1.0382
212 3 11.3077 36.3783 0.1387 0.6405 0.1895
213 3 46.4103 48.1331 45.6536 -0.8107 -0.7553
214 3 49.9315 3.0607 20.1530 1.6213 -0.6881
215 3 4.8322 30.6385 5.0745 0.9901 -0.9346
216 3 29.6927 33.5623 48.1425 -0.9554 0.3346
217 3 44.5166 30.2638 23.6699 -0.7023 1.9249
218 3 0.4218 30.8012 13.3124 0.7268 0.3298
219 3 49.7374 38.6250 28.3024 1.3074 0.8935
220 3 9.3378 34.5267 43.5456 0.5166 -2.3634
221 3 32.3704 20.0633 10.6292 -1.7782 -2.8439
222 3 38.2394 36.9136 17.3706 0.3458 1.1010
223 3 45.5909 32.2238 24.5978 0.3277 -0.3892
224 3 38.8774 47.3420 23.3396 -0.9260 0.5077
225 3 2.2042 20.2729 44.6862 0.7037 -0.9447
226 3 33.9375 28.6465 40.6537 0.7642 -0.3720
227 3 28.6582 15.0467 49.8483 0.6531 -0.9170
228 3 34.6948 34.6171 27.2520 0.7841 -1.4004
229 3 49.7206 23.2825 34.7417 -0.3271 -1.6378
230 3 29.4874 42.8335 22.6090 1.0521 0.7331
231 3 22.6849 12.7186 34.7902 0.3442 -0.8970
232 3 45.6539 26.0258 26.2566 -1.3944 1.2262
233 3 8.1828 46.8360 2.6060 -0.0843 0.7253
234 3 13.4071 15.6078 7.3603 0.5563 1.0217
235 3 23.0655 34.6877 4.7905 -0.4193 0.2863
236 3 29.8269 0.8526 14.8993 0.0013 -1.1408
237 3 41.6236 39.2117 32.0162 1.0266 -0.3984
238 3 35.0356 15.4074 6.0195 0.9752 0.5552
239 3 1.3345 43.0067 25.5631 -1.0496 0.8444
240 3 47.1738 39.2055 9.2372 -0.2227 -0.7086
241 3 24.4797 18.2376 27.2962 -1.3113 -0.5949
242 3 6.1950 38.9251 8.8879 -1.0373 2.0116
243 3 21.2950 3.0849 44.5906 -2.4001 0.3604
244 3 18.7946 37.5341 21.4629 -1.1711 -0.8644
245 3 25.5843 23.2668 30.6060 -0.0931 -0.2723
246 3 46.0810 43.9200 6.9037 0.0008 -1.8900
247 3 33.4245 5.5936 29.0399 -0.8045 -0.1239
248 3 34.1778 0.3048 1.5291 1.2576 -0.5728
249 3 6.3311 27.9442 10.4241 -0.2482 0.5287
250 3 14.0854 28.5020 22.2725 -0.0379 0.0714
251 3 10.0790 16.3029 7.8016 1.5554 0.3410
252 3 26.8443 29.5275 42.5603 1.7947 0.8102
253 3 4.9851 48.1320 45.3308 2.0015 0.2691
254 3 35.0895 9.9227 31.4595 1.6642 -0.0816
255 3 32.2503 15.4668 41.1796 0.4930 -0.1933
256 3 20.4494 25.6349 7.9190 -0.3600 -0.9255
257 3 9.8529 29.2774 7.2859 0.0159 0.4341
258 3 17.0913 18.7538 44.5378 -0.2049 -0.0683
259 3 29.4646 44.2193 34.5717 0.8001 0.3389
260 3 5.3106 30.7401 29.7502 -0.5307 -0.6122
261 3 45.5930 27.3488 42.2020 -0.9019 -0.9197
262 3 37.8674 36.5578 49.1138 0.8769 1.1045
263 3 35.1899 28.1165 8.5730 0.1976 0.7881
264 3 38.7885 10.9749 3.9171 -0.2321 -1.6087
265 3 14.1641 13.2682 14.0130 0.7306 -0.2379
266 3 6.3153 15.9260 35.0196 1.1975 -1.1319
267 3 8.5733 6.8724 9.8551 1.6244 -0.0092
268 3 0.3416 2.6189 25.1229 -1.3751 1.1092
269 3 3.1296 8.2256 11.0506 1.4122 -0.1202
270 3 47.0778 6.9692 49.9049 0.8218 -0.3697
271 3 2.4213 27.3005 47.0200 1.0546 -0.2732
272 3 38.7618 15.9334 49.7430 3.3728 0.2342
273 3 3.5755 22.9938 15.9210 0.6717 -0.7065
274 3 19.7334 44.4158 31.6964 0.4364 0.2294
275 3 28.5090 30.9454 6.7733 -0.0667 1.2657
276 3 1.9996 26.5748 43.7507 -1.2671 -1.6913
277 3 28.9198 39.2166 29.9493 0.3106 0.2996
278 3 49.1338 10.7482 3.5327 -0.9610 0.2705
279 3 13.4391 29.4775 18.1344 -0.0766 -2.0527
280 3 5.8408 15.2028 29.5265 -1.0545 -0.5710
281 3 13.4810 47.8109 21.4411 0.3549 1.0189
282 3 12.6686 16.8350 16.0310 -0.7649 1.3509
283 3 39.5427 41.1387 43.3415 -1.9135 -0.1844
284 3 31.9951 29.0965 10.6057 1.7178 0.9511
285 3 23.4902 32.1428 36.4425 -0.3903 0.0726
286 3 23.9871 16.7502 31.3109 -0.6477 1.0851
287 3 30.2315 18.6509 5.7740 1.4011 -0.1397
288 3 22.2523 40.2089 1.8254 -0.3803 0.3611
289 3 14.3949 0.6574 35.0957 -0.0085 0.4867
290 3 9.5754 12.4381 1.5464 1.0220 -0.2462
291 3 12.9873 7.8840 31.8309 0.3298 -0.4157
292 3 7.9674 11.5297 32.1342 1.9340 -0.9450
293 3 13.0336 4.1060 42.1976 0.2927 -1.2714
294 3 8.8518 23.7311 3.7517 -2.0109 1.3087
295 3 13.9985 0.6711 0.3145 -0.5233 2.9325
296 3 30.9298 28.1945 28.4686 0.8626 0.5358
297 3 5.9072 0.4767 35.7258 2.1041 0.1881
298 3 42.6976 46.4928 22.7650 -0.2020 -1.2694
299 3 37.8072 44.8513 42.4298 0.9261 0.4190
300 3 47.5473 28.7858 4.7123 -2.2241 1.3227
301 3 30.5417 19.5591 46.6884 0.8017 -0.3858
302 3 12.9176 26.4852 47.5179 -0.4080 -0.7944
303 3 36.1271 8.8657 3.0157 -0.9925 0.2543
304 3 31.9395 34.3181 35.3389 0.3625 0.2638
305 3 38.3940 10.8429 42.6851 0.3780 -0.6525
306 3 49.2142 4.1483 4.4229 0.2348 1.0696
307 3 40.3708 35.8129 14.9921 -0.3842 0.5977
308 3 7.8219 42.4312 32.0405 -0.1310 -1.7935
309 3 21.8577 25.9685 23.7396 1.8977 2.5993
310 3 17.6584 36.0808 18.8436 -1.2738 -0.0309
311 3 7.2921 4.5939 9.9173 -0.7542 0.2655
312 3 23.7068 6.5666 16.9116 -0.5235 0.0279
313 3 19.0625 47.2908 45.1121 -1.4071 0.2275
314 3 42.5028 9.1262 42.0775 -0.7380 -0.3462
315 3 37.2473 44.8149 21.7343 -0.7580 -0.6068
316 3 6.6539 23.0309 32.4744 -0.5106 -1.4820
317 3 25.9891 49.3029 9.3216 0.8809 -0.4419
318 3 22.9023 22.8787 29.7974 -0.1271 -0.8698
319 3 34.4368 1.2143 36.3289 -0.3772 -0.1617
320 3 43.3787 18.3506 34.0700 -2.6457 0.7272
321 3 1.9003 3.6827 16.1946 0.3965 -0.1433
322 3 18.5635 14.5838 40.4537 0.4058 -0.6896
323 3 13.6133 32.1252 44.5159 -1.5012 -0.7390
324 3 48.0989 36.5793 4.7253 0.4168 1.0836
325 3 21.0800 2.1520 15.4879 -2.1921 0.3091
326 3 19.6213 19.4293 28.9734 0.1099 0.4412
327 3 28.9434 32.5198 17.0886 -0.0196 0.4723
328 3 35.6164 18.8746 41.9534 1.2408 -1.9019
329 3 24.3433 47.5075 17.4808 -1.6163 -2.6592
330 3 48.2758 9.8502 48.0851 -0.6051 1.2691
331 3 29.4440 24.8482 38.7130 -0.2259 -1.7288
332 3 39.0697 36.7208 16.4519 -0.3086 0.7777
333 3 48.6466 32.9274 28.3708 -0.1904 -0.3143
334 3 48.8366 30.2471 8.1943 0.2603 0.8923
335 3 11.2195 18.9422 33.4187 -0.5933 -0.8218
336 3 18.8274 37.8715 48.9477 0.0626 -0.2316
337 3 31.8377 7.6883 23.6228 -0.6207 -0.3014
338 3 30.8158 25.7147 48.2289 -0.5066 1.7180
339 3 16.2514 32.0897 0.0525 -0.1145 0.9642
340 3 38.7082 33.1053 9.2744 -0.9130 -1.0884
341 3 16.9239 45.0825 30.6263 1.0696 -0.2849
342 3 31.9490 30.7109 17.7257 -0.7344 -1.4292
343 3 27.6530 25.0790 38.3103 0.6416 -0.7834
344 3 2.2642 33.9257 37.6507 -1.4990 -1.0007
345 3 22.5747 2.1185 2.4322 0.5257 -1.3725
346 3 14.3732 45.3191 5.2020 -0.4626 -0.1083
347 3 38.6569 38.0794 5.8160 2.4512 -0.6504
348 3 22.3748 21.9041 13.6805 0.5613 -0.4530
349 3 5.7223 34.2216 46.9948 0.0855 0.1586
350 3 16.0424 38.7545 7.2396 0.6515 0.8662
351 3 3.0406 47.2408 8.5327 -0.2167 0.8830
352 3 29.9297 0.5588 39.4792 -0.3810 -0.1583
353 3 47.3425 6.7650 4.5708 -2.2148 -0.5339
354 3 40.7766 34.3838 24.2681 -0.7768 -0.8998
355 3 42.1281 31.8976 45.3085 0.8451 -0.8966
356 3 7.2613 1.0374 2.2084 0.5108 0.6329
357 3 26.9823 31.7048 42.3841 -0.5402 1.3312
358 3 20.1917 6.7298 21.7672 -1.4156 -0.7349
359 3 35.2925 14.5096 8.6672 0.4860 0.6419
360 3 41.0771 3.8264 0.6624 -0.1252 0.8101
361 3 10.9667 35.5648 21.4093 -1.2494 -0.9924
362 3 26.4664 33.4704 28.6397 -1.1678 0.2761
363 3 26.7582 39.5552 5.5492 1.2931 -0.1243
364 3 17.5933 34.6375 38.7630 0.6517 0.3158
365 3 47.8316 15.1964 14.8235 0.5469 0.6143
366 3 32.4597 36.5429 9.3877 -0.1120 -0.6996
367 3 29.3951 14.6704 2.2924 0.4114 -0.1137
368 3 36.7989 34.3058 45.8886 -0.2380 -1.1479
369 3 41.3499 31.5149 31.5829 -0.0691 0.7311
370 3 45.1776 25.3513 10.6324 -1.6652 0.2107
371 3 30.5081 23.4293 48.0160 -1.9614 -0.2118
372 3 47.1310 18.0771 27.5472 0.2950 -1.1189
373 3 23.4243 33.8306 45.6108 0.8817 0.2499
374 3 26.5990 20.9217 40.6164 -1.1121 -0.7497
375 3 4.6062 38.6545 44.0206 -0.7768 -1.1664
376 3 15.0210 16.6233 9.5196 0.2308 -0.5408
377 3 24.8749 16.4719 48.4661 0.3855 -0.9772
378 3 17.7405 19.5670 49.4846 0.0979 -0.4097
379 3 40.2180 31.4945 4.6517 -0.3700 0.1366
380 3 18.8533 37.8181 26.5307 0.1434 0.9431
381 3 27.0269 28.8091 22.9678 -0.0844 0.4487
382 3 46.1795 44.2853 25.4694 -1.8368 -1.6684
383 3 2.3986 16.7120 11.7937 1.2899 1.5557
384 3 29.9980 44.9616 14.2112 2.0205 1.5345
385 3 2.4974 21.9824 21.6288 -0.6102 -1.2430
386 3 34.4025 11.7513 17.5528 -0.7438 -1.3447
387 3 37.5484 12.3063 2.0389 0.1312 0.0373
388 3 13.2643 14.2690 10.3332 -0.9558 -0.3967
389 3 47.1517 15.8198 27.6643 0.8914 -0.4915
390 3 39.1949 13.6770 34.3516 -1.7884 -0.4214
391 3 40.7717 43.3863 21.9145 -0.6857 0.0616
392 3 7.1703 11.2563 27.3731 -0.6851 0.9233
393 3 14.2217 22.6826 33.6611 0.5256 1.0408
394 3 10.7211 21.6216 40.9972 0.4827 -1.0580
395 3 7.9852 44.7756 10.3347 0.5145 0.7319
396 3 11.9360 11.5713 34.9807 -0.2431 2.0268
397 3 1.0314 27.9487 17.0626 0.4310 2.0859
398 3 40.2260 37.0800 2.4976 -0.2157 0.6438
399 3 5.4864 9.0832 9.8737 0.6809 0.5298
400 3 26.7985 16.7958 23.7180 0.9314 1.4452
401 3 8.3656 31.5489 28.5867 -0.1839 -0.6497
402 3 22.2157 8.1256 21.9151 -0.1012 -0.6237
403 3 27.1869 20.7105 45.1090 0.2162 0.1216
404 3 5.1186 8.3619 24.7215 0.0496 1.6950
405 3 4.5088 48.6673 30.0392 0.3868 -0.1426
406 3 31.7988 37.0342 46.2543 0.3683 1.3140
407 3 26.2059 24.3847 30.8928 0.0202 0.9302
408 3 20.3554 26.4420 26.5655 0.5920 0.4214
409 3 30.3054 42.2763 11.2918 0.5828 0.4157
410 3 7.7801 9.7003 27.2677 -0.7737 1.2052
411 3 27.9263 30.8748 44.7182 0.3255 -0.4599
412 3 48.9850 22.4076 11.4587 -0.0260 1.5335
413 3 21.1852 5.1840 45.2926 0.2813 0.8506
414 3 42.7100 22.8564 37.2810 -0.8301 0.6470
415 3 31.0366 3.6941 22.3786 1.1557 -0.2698
416 3 2.9083 9.9945 33.5308 0.2544 1.1538
417 3 24.4432 46.0124 25.8440 0.5545 -0.4763
418 3 20.2376 35.9892 15.9956 0.1716 0.3878
419 3 2.5915 46.3974 8.1925 -0.1709 0.8012
420 3 17.0105 42.2617 30.1656 -0.5221 -0.1760
421 3 33.5955 41.5912 22.0335 1.0591 -1.2969
422 3 41.3236 9.1364 7.7358 -0.7910 0.0991
423 3 47.5414 17.8717 29.7497 0.2777 -0.0243
424 3 40.0715 33.7011 11.8880 -2.2599 3.2866
425 3 5.3727 23.4943 5.5497 1.0576 1.3595
426 3 18.4198 16.0145 33.7176 -0.0587 -0.6057
427 3 32.7716 11.1666 22.6346 1.8301 -0.6294
428 3 33.7160 14.0777 28.0172 -1.0622 -0.0884
429 3 39.1716 19.3081 42.0997 -0.5074 1.4407
430 3 26.1275 36.5435 41.1646 -0.7266 -1.1799
431 3 13.1556 40.0434 42.3461 0.5652 -0.0204
432 3 47.6997 38.5116 30.8975 -0.4430 -0.6180
433 3 12.5523 42.7203 15.9990 1.4329 -1.6134
434 3 9.8816 11.3525 40.2899 0.5799 -1.1445
435 3 37.4289 16.1135 39.9528 0.6300 -0.6455
436 3 30.1215 29.9657 42.5934 0.1341 1.3203
437 3 3.4010 43.2153 16.6035 0.7836 -0.3594
438 3 26.5171 38.7293 22.0830 0.5831 1.1573
439 3 30.0432 17.2708 8.1009 0.0087 -1.7314
440 3 30.6089 5.4617 0.3935 0.9702 2.3584
441 3 11.6320 36.3937 10.8782 -1.4418 -0.2335
442 3 44.8093 12.4056 3.3837 -0.4431 -1.7578
443 3 45.4346 46.5182 45.4535 -1.0714 1.3805
444 3 34.0535 22.2117 40.1312 -0.5021 -0.3127
445 3 42.6140 40.9749 31.1886 -0.2791 1.3493
446 3 17.5145 48.6783 45.5046 -0.5869 -0.2400
447 3 48.9387 14.0370 37.9766 -1.1568 1.0336
448 3 16.7154 17.0255 1.4438 1.1872 0.8036
449 3 30.0349 38.9535 47.6016 0.7725 -1.8940
450 3 13.4722 10.9861 35.4494 0.3684 -0.5241
451 3 23.8361 45.7197 24.7207 -1.6557 1.5813
452 3 28.4819 16.8007 12.3259 -0.5847 -0.9847
453 3 44.0220 38.4357 30.9113 -0.3124 -0.0179
454 3 20.3561 43.0324 32.0893 0.3917 0.6869
455 3 29.4367 33.1942 17.0956 -0.7574 1.5612
456 3 11.0968 45.9445 23.5289 0.9119 1.8914
457 3 28.9610 34.6866 43.7259 0.9927 0.1666
458 3 30.1569 49.6351 26.6036 0.9335 -1.5230
459 3 23.5730 19.8710 48.8826 1.4763 -0.4551
460 3 21.9660 17.6540 38.2405 -0.6890 0.8691
461 3 23.2394 4.1765 40.8187 -0.4863 1.9604
462 3 42.1798 20.1717 32.7197 2.2882 1.0352
463 3 17.3988 26.3620 22.3063 0.4127 0.1555
464 3 21.0070 1.4202 37.6982 0.2923 0.0940
465 3 24.2793 9.1567 2.1714 0.9215 0.4660
466 3 46.6530 33.3012 26.0271 -0.0299 1.7740
467 3 25.3090 18.4508 6.4796 -0.3959 0.8886
468 3 41.4984 24.5318 17.1933 0.4138 1.0514
469 3 27.2131 29.0967 39.2699 1.3715 -0.4010
470 3 49.1736 22.7445 18.1302 1.5489 -0.3449
471 3 34.3858 15.1004 39.7222 1.1191 0.0710
472 3 46.6956 28.0158 28.4571 1.4335 1.0606
473 3 18.4973 47.9566 21.9818 -0.3183 -1.2909
474 3 43.5361 6.1294 40.1401 -0.6709 -0.0738
475 3 26.2520 9.8133 44.1784 -0.2211 -0.5015
476 3 14.0243 33.2248 4.8182 -1.0780 0.2669
477 3 45.7621 45.0815 12.6925 0.9225 1.2197
478 3 46.8816 36.8643 35.7329 0.0536 -0.7194
479 3 34.8854 30.8844 20.7549 -0.3938 -1.0806
480 3 49.3061 32.6705 17.2425 -0.9337 0.4337
481 3 18.6367 21.4298 22.0766 -0.2695 -0.1864
482 3 27.8689 39.3000 33.2790 1.0288 1.1040
483 3 47.3328 26.2812 1.6917 -0.2440 -0.0599
484 3 32.1434 1.2964 46.8470 -0.3300 -1.0636
485 3 44.1881 21.9454 36.5858 -0.2662 2.0256
486 3 47.8082 11.4816 17.4032 1.1661 3.3328
487 3 16.8308 3.7969 41.2872 1.3997 0.4967
488 3 22.5498 20.0321 2.7619 1.4692 0.5797
489 3 22.0429 2.8151 49.3745 -0.4285 -1.4040
490 3 10.6910 14.5289 36.5492 0.0109 1.2823
491 3 45.5938 36.4452 17.8880 0.2126 0.3671
492 3 45.4724 8.0255 4.0639 -1.4143 -1.2555
493 3 48.2095 26.8342 24.5830 -0.4652 -0.4658
494 3 25.9756 19.9753 29.4436 0.6408 -1.1273
495 3 41.9251 17.3641 24.3977 0.8147 1.2322
496 3 28.8975 29.5448 18.2130 1.3078 0.5966
497 3 33.4666 16.6707 34.3180 0.4442 -0.6097
498 3 47.0058 27.1643 15.9974 -0.2587 0.7467
499 3 49.6659 47.1287 28.9884 -0.1546 1.0383
500 3 9.4732 6.4238 38.8944 0.2246 1.6526
501 3 15.0011 24.3015 25.8976 2.8765 -1.4691
502 3 25.3058 31.4986 1.1868 1.3470 -1.3004
503 3 1.6959 42.2747 23.0712 0.1532 -1.1320
504 3 33.0980 30.7168 23.3211 0.6510 -0.7322
505 3 8.2042 29.6989 19.9833 0.6773 0.3718
506 3 24.6242 10.8830 7.9844 -0.5591 1.6687
507 3 13.0991 1.9439 32.3312 -0.1206 1.2107
508 3 28.8565 20.3344 24.4770 -0.0708 -0.9627
509 3 0.5803 24.8160 45.0490 0.1155 0.4189
510 3 37.4497 24.8427 1.2907 1.0893 -0.2032
511 3 36.7766 2.1166 13.6864 -1.5830 -0.3257
512 3 20.8647 16.6621 38.6169 -0.9625 -1.1445
513 3 6.9142 47.9192 29.6468 1.3434 0.5784
514 3 10.1986 22.0978 5.2592 -0.0671 0.0301
515 3 19.7736 43.9305 16.9108 0.2793 -0.3553
516 3 9.9143 47.9225 15.8192 -0.1447 1.0423
517 3 18.0926 43.6090 7.1240 2.4426 -0.1531
518 3 21.8516 17.7934 7.9170 -0.3814 0.4916
519 3 26.3543 9.4949 13.5283 0.3316 1.1242
520 3 29.2590 46.3157 29.1382 1.0449 -0.0454
521 3 42.6824 31.6157 24.9518 0.4611 -0.1089
522 3 8.7697 9.3503 49.4121 1.4287 0.4598
523 3 36.4038 5.3584 39.4811 -1.4193 0.5357
524 3 42.5637 37.8586 41.1282 -0.3165 0.3851
525 3 31.8596 29.2414 9.1985 -0.2727 0.0722
526 3 47.8887 10.6452 2.1163 -2.0610 -0.4381
527 3 30.5843 31.3559 41.3014 -0.1693 0.5931
528 3 7.1969 23.7100 47.3564 -0.1997 -1.6437
529 3 32.9049 13.8465 28.1705 0.2738 -0.2829
530 3 31.2297 23.9818 13.9820 -1.0308 -0.1529
531 3 3.8864 40.7245 4.4534 0.4108 1.1103
532 3 2.1210 3.7265 15.5712 -0.4872 -0.6851
533 3 7.5825 23.9133 7.3543 0.3234 0.1060
534 3 28.3502 34.8542 39.1532 -0.1579 0.4835
535 3 9.7500 12.9706 12.3485 -2.9309 -0.2858
536 3 26.8037 22.9570 19.5511 1.1749 -1.1084
537 3 35.5694 5.2200 38.6912 1.2706 0.9924
538 3 28.0043 17.8975 1.5893 1.1016 -0.3395
539 3 33.0638 43.7385 28.7467 1.4237 -1.6936
540 3 31.1114 41.4071 37.2996 0.6243 -1.4455
541 3 35.1806 25.8910 31.0384 1.3546 -0.0075
542 3 20.2328 33.1151 27.6654 1.0697 -0.8551
543 3 29.0441 37.1331 40.8321 -0.6536 0.3574
544 3 39.4853 17.2010 34.0855 -0.7322 2.0074
545 3 13.9726 8.1465 12.4532 0.3685 0.2206
546 3 39.5319 11.5222 9.6882 -0.0382 0.1072
547 3 34.1434 40.1944 29.7475 -1.0914 -0.7560
548 3 14.0681 2.3296 20.3731 -0.6521 -0.6481
549 3 49.3319 21.9613 4.7692 0.0239 0.5247
550 3 11.4726 32.0573 21.7162 0.2600 -0.3008
551 3 26.2947 31.9322 26.8835 0.3262 0.8947
552 3 26.8270 12.2626 48.5695 -0.8311 -2.0395
553 3 40.4038 14.2000 46.1329 1.4200 1.5122
554 3 43.6092 2.3853 21.5742 -2.9049 0.1854
555 3 19.5356 5.4900 1.9523 -0.1262 -0.5743
556 3 8.0023 6.0937 49.3388 0.2953 1.8376
557 3 25.9736 44.3939 45.0704 -0.1871 -1.0538
558 3 8.8089 15.2021 39.0300 1.1128 -0.2783
559 3 28.6090 41.1028 44.8208 -0.6931 1.1126
560 3 6.4353 12.6587 31.4855 0.5413 -1.0022
561 3 47.8180 10.0314 18.9791 0.6026 0.0140
562 3 8.8662 36.4813 31.6049 0.1635 0.1599
563 3 9.0197 42.0861 8.8744 -1.1048 -0.1228
564 3 42.0271 46.0971 43.4984 0.9595 -0.9028
565 3 46.0126 9.1645 4.4641 -1.1570 0.8041
566 3 3.1016 16.7772 32.3998 1.1447 -0.9675
567 3 40.3231 15.6156 39.1665 1.5358 -0.7357
568 3 18.9265 39.4657 26.2337 0.5973 -0.3813
569 3 4.1767 8.6410 16.2698 -1.9994 1.2144
570 3 17.5147 32.6589 48.3357 -1.2174 0.3574
571 3 14.9581 21.8765 36.1543 2.0340 1.7780
572 3 8.2087 48.1805 9.7620 0.4047 -0.0973
573 3 35.1412 19.5632 48.1208 1.7127 -0.4132
574 3 21.5821 32.8554 33.6263 -0.6992 1.0347
575 3 39.2094 6.3430 40.1249 -0.5204 0.6357
576 3 43.7904 32.3120 1.5566 0.6934 -1.0852
577 3 49.6538 17.2491 6.1059 -0.7685 -0.6213
578 3 17.9895 40.1060 26.4347 -0.2839 -0.6874
579 3 49.6043 44.9468 29.1296 1.3123 0.0318
580 3 9.1290 35.7779 16.7833 -0.0875 -1.9582
581 3 11.6360 47.8787 47.2152 0.6917 1.1051
582 3 3.3904 44.5541 13.9173 0.3051 1.2701
583 3 5.0893 15.7016 1.1681 -0.5439 -1.8563
584 3 13.7541 29.7992 12.6226 -1.3854 1.4878
585 3 32.3527 46.6439 16.3614 -0.0640 0.4825
586 3 9.6087 16.7335 39.8298 1.8279 0.5519
587 3 12.9468 34.1021 31.2427 1.7819 0.8828
588 3 33.6018 14.8038 27.0807 -0.0576 0.9145
589 3 39.5640 49.0047 19.8930 -0.0887 -1.4581
590 3 49.4050 11.8574 18.2474 0.3369 1.1300
591 3 12.5945 48.2939 22.6763 -1.7609 0.6782
592 3 27.3878 13.3305 2.8650 0.8660 -1.8489
593 3 37.6175 48.5748 18.6474 0.5972 -1.8247
594 3 44.8792 40.4814 12.5622 0.5107 0.0163
595 3 7.3463 8.0496 12.3597 -0.8899 0.1091
596 3 11.9486 37.3338 32.7059 0.6850 -0.9364
597 3 4.7299 41.0214 5.3399 0.6527 1.1140
598 3 30.2140 39.7034 2.9518 -0.4869 0.1327
599 3 6.4783 35.2729 26.1579 0.3236 -0.7406
600 3 10.0699 47.1993 40.7455 0.6073 -1.1180
601 3 10.5301 42.8935 39.5765 0.3357 0.9472
602 3 45.6839 30.6812 47.2694 0.5617 -1.8094
603 3 33.8220 43.7258 1.5697 0.1704 1.0670
604 3 20.3962 26.3745 4.3069 -1.9854 0.6597
605 3 18.3924 44.1165 39.1037 -0.8558 -0.5150
606 3 40.4789 2.9302 17.5081 -2.2639 -1.1922
607 3 12.2238 5.8511 2.5547 0.6039 1.5575
608 3 21.3666 20.8850 8.7223 1.2760 0.6792
609 3 2.5748 38.1433 10.6441 -2.1992 0.2306
610 3 13.3630 18.6900 17.3601 -0.8859 -0.2687
611 3 49.4758 4.1348 26.5785 0.4732 2.6263
612 3 26.6335 16.5158 42.0127 -0.8559 0.7383
613 3 28.3122 15.4057 10.8043 1.0587 -0.6208
614 3 17.8543 32.6145 4.6277 0.2383 0.7563
615 3 43.5768 32.6940 4.1962 1.3918 -1.6484
616 3 41.0089 9.9702 45.7247 0.1650 0.9189
617 3 15.1645 17.4765 21.4135 -0.2248 -0.2144
618 3 43.3638 45.1291 49.3972 -1.2449 1.2527
619 3 10.6882 15.3841 16.9367 0.5621 -0.0931
620 3 24.3429 39.5041 33.5906 -1.0083 1.8252
621 3 1.0832 37.1811 31.9867 0.0247 -0.6768
622 3 6.6552 10.9132 36.9942 -0.7314 1.6959
623 3 0.5173 6.3496 25.0509 -0.5655 0.3932
624 3 31.0446 40.8011 19.0097 -0.8151 1.8002
625 3 31.7596 8.3147 9.0457 0.2953 0.5031
626 3 42.9950 23.7274 6.2967 -0.2356 -0.7518
627 3 29.9017 11.6751 26.1422 1.1784 0.6481
628 3 47.4823 25.9640 30.3596 0.0346 1.9035
629 3 45.3388 37.3500 15.4159 0.5415 -1.2043
630 3 13.4331 25.5418 13.3564 0.6522 0.8192
631 3 25.1494 32.3516 36.8678 -0.0779 0.1847
632 3 23.0704 47.7884 14.2492 -0.4658 -0.7202
633 3 21.3609 41.6539 15.3147 0.2424 -0.5312
634 3 21.2641 24.8342 31.9874 -0.7009 1.2519
635 3 23.0668 47.0590 4.8170 0.0874 0.3197
636 3 5.3294 2.5543 11.4625 -1.0086 0.4389
637 3 45.3740 48.6464 16.2562 -2.0333 -0.1551
638 3 32.3420 16.4603 36.7102 0.7799 -0.5573
639 3 11.9009 25.3231 3.8350 -0.5180 0.3567
640 3 3.7367 26.8022 14.7548 -0.7210 -0.1855
641 3 17.8345 6.0330 47.9517 -0.0806 -0.0452
642 3 39.4828 7.0872 36.5339 -2.0132 -0.8292
643 3 43.4759 44.1895 43.9826 0.9599 -0.5665
644 3 26.2808 33.4749 41.5466 0.2039 -2.4777
645 3 31.5497 22.4201 40.1200 -0.3748 -0.9082
646 3 30.1288 7.0338 12.9015 1.3932 -0.9296
647 3 21.5707 41.5192 46.7979 0.5017 0.6881
648 3 17.1032 7.9296 32.7263 0.3044 -0.1621
649 3 1.5886 19.2510 34.2854 0.7217 0.0037
650 3 36.6772 13.9310 30.2601 -1.6789 0.2730
651 3 22.7949 14.8854 48.3496 0.8395 -0.3553
652 3 10.9870 11.7176 1.1380 -0.1345 -0.9482
653 3 34.2314 37.6285 24.5531 -0.9622 0.1861
654 3 21.6678 49.1259 49.7164 -1.5361 1.0451
655 3 18.1066 3.9269 18.3427 1.3133 0.0528
656 3 41.5853 28.3331 27.4587 0.5747 -0.2700
657 3 6.7387 48.3767 31.3819 -0.7500 -0.9918
658 3 9.3652 3.9831 4.7659 -1.2844 -0.6604
659 3 8.9683 21.2431 18.8599 -0.1771 0.0281
660 3 4.8760 42.6695 32.0508 -0.3248 0.8069
661 3 22.3574 40.7184 6.8397 0.3144 1.4600
662 3 24.2251 16.3055 41.3344 -1.1957 0.6354
663 3 29.1394 2.4887 41.0005 0.1294 -0.1400
664 3 45.5509 47.2339 44.2895 -1.2162 0.2657
665 3 21.5578 26.0692 18.3593 0.4228 1.7164
666 3 18.8228 17.1511 10.7050 -0.5540 -0.7140
667 3 35.7077 35.3844 40.5360 -1.1677 -0.6478
668 3 7.4434 8.4863 12.9601 1.2432 -0.0974
669 3 6.5277 47.2530 25.4119 1.3983 0.9966
670 3 16.2698 21.1724 30.9662 -0.3329 1.6333
671 3 33.3293 10.3468 43.6603 0.7726 0.9571
672 3 1.2084 15.2576 35.1868 -0.3066 -0.6110
673 3 16.5854 39.9381 9.4686 0.4080 -1.1822
674 3 11.0950 36.7580 27.5077 0.2567 0.3453