ITEM: TIMESTEP
0
ITEM: NUMBER OF ATOMS
9
ITEM: BOX BOUNDS pp pp pp
0.0 14.000000
0.0 14.000000
0.0 14.000000
ITEM: ATOMS id type x y z charge
1 6 3.0609 6.9929 7.0415 -0.2000
2 1 3.5871 7.6436 7.5593 0.0500
3 1 2.3191 6.4170 7.5919 0.0500
4 1 2.3687 7.6182 6.3437 0.0500
5 1 3.6216 6.3347 6.3348 0.0500
6 8 9.9453 5.4778 6.9866 0.0000
7 8 11.0914 5.4318 6.9394 0.0000
8 8 9.8090 8.5485 7.0110 0.0000
9 8 11.2362 8.5239 7.0282 0.0000
ITEM: TIMESTEP
20
ITEM: NUMBER OF ATOMS
9
ITEM: BOX BOUNDS pp pp pp
0.0 14.000000
0.0 14.000000
0.0 14.000000
ITEM: ATOMS id type x y z charge
1 6 2.9257 6.9524 7.0799 -0.1960
2 1 3.7341 7.6334 7.7473 0.0517
3 1 2.3790 6.3704 7.6704 0.0517
4 1 2.4538 7.6831 6.3667 0.0517
5 1 3.6454 6.4050 6.3893 0.0517
6 8 9.8949 5.5779 6.9978 -0.0024
7 8 11.1728 5.4866 6.9978 -0.0040
8 8 9.9652 8.4648 7.0037 -0.0024
9 8 11.2040 8.5211 6.8716 -0.0040
ITEM: TIMESTEP
40
ITEM: NUMBER OF ATOMS
9
ITEM: BOX BOUNDS pp pp pp
0.0 14.000000
0.0 14.000000
0.0 14.000000
ITEM: ATOMS id type x y z charge
1 6 3.0276 6.9947 7.0388 -0.1919
2 1 3.6709 7.5356 7.6249 0.0533
3 1 2.4036 6.2773 7.6112 0.0533
4 1 2.4105 7.6815 6.3764 0.0533
5 1 3.7722 6.4708 6.4242 0.0533
6 8 10.0067 5.5384 7.0431 -0.0047
7 8 11.1399 5.4612 7.0841 -0.0081
8 8 9.9695 8.4345 7.0972 -0.0047
9 8 11.1967 8.5340 6.9270 -0.0081
ITEM: TIMESTEP
60
ITEM: NUMBER OF ATOMS
9
ITEM: BOX BOUNDS pp pp pp
0.0 14.000000
0.0 14.000000
0.0 14.000000
ITEM: ATOMS id type x y z charge
1 6 3.1163 7.0321 6.9323 -0.1879
2 1 3.7280 7.5724 7.5895 0.0550
3 1 2.4385 6.3145 7.5808 0.0550
4 1 2.5068 7.5289 6.4127 0.0550
5 1 3.7505 6.3917 6.3468 0.0550
6 8 9.7287 5.5967 7.0342 -0.0071
7 8 11.0959 5.3900 7.0453 -0.0121
8 8 9.9262 8.4484 7.0503 -0.0071
9 8 11.2026 8.4737 7.0254 -0.0121
ITEM: TIMESTEP
80
ITEM: NUMBER OF ATOMS
9
ITEM: BOX BOUNDS pp pp pp
0.0 14.000000
0.0 14.000000
0.0 14.000000
ITEM: ATOMS id type x y z charge
1 6 2.9553 7.0720 7.0095 -0.1839
2 1 3.7039 7.7006 7.6082 0.0566
3 1 2.5779 6.3160 7.6490 0.0566
4 1 2.5766 7.6320 6.3912 0.0566
5 1 3.8088 6.4451 6.4280 0.0566
6 8 9.9124 5.5301 6.9778 -0.0095
7 8 11.0904 5.4601 6.9795 -0.0161
8 8 9.9306 8.5564 6.9717 -0.0095
9 8 11.2116 8.5151 6.8914 -0.0161
ITEM: TIMESTEP
100
ITEM: NUMBER OF ATOMS
9
ITEM: BOX BOUNDS pp pp pp
0.0 14.000000
0.0 14.000000
0.0 14.000000
ITEM: ATOMS id type x y z charge
1 6 3.1132 7.0265 6.9620 -0.1798
2 1 3.8171 7.5012 7.5482 0.0583
3 1 2.4896 6.2868 7.6666 0.0583
4 1 2.4737 7.6574 6.4266 0.0583
5 1 3.7839 6.4802 6.3276 0.0583
6 8 9.9446 5.6359 6.9696 -0.0119
7 8 11.0400 5.5511 6.9504 -0.0202
8 8 9.9770 8.5226 6.9008 -0.0119
9 8 11.1093 8.4528 6.8740 -0.0202
ITEM: TIMESTEP
120
ITEM: NUMBER OF ATOMS
9
ITEM: BOX BOUNDS pp pp pp
0.0 14.000000
0.0 14.000000
0.0 14.000000
ITEM: ATOMS id type x y z charge
1 6 3.1124 7.0291 6.9231 -0.1758
2 1 3.8544 7.5489 7.5986 0.0600
3 1 2.5714 6.3063 7.5965 0.0600
4 1 2.4510 7.6360 6.3609 0.0600
5 1 3.7762 6.3984 6.3958 0.0600
6 8 9.8581 5.4986 7.0533 -0.0142
7 8 11.1331 5.3841 6.9498 -0.0242
8 8 9.8406 8.5002 7.0000 -0.0142
9 8 11.1715 8.4619 7.0582 -0.0242
ITEM: TIMESTEP
140
ITEM: NUMBER OF ATOMS
9
ITEM: BOX BOUNDS pp pp pp
0.0 14.000000
0.0 14.000000
0.0 14.000000
ITEM: ATOMS id type x y z charge
1 6 3.0631 7.0040 6.8456 -0.1718
2 1 3.9003 7.6152 7.5857 0.0616
3 1 2.6181 6.2804 7.6136 0.0616
4 1 2.6104 7.8258 6.4458 0.0616
5 1 3.8039 6.3891 6.4650 0.0616
6 8 9.7955 5.5659 7.0305 -0.0166
7 8 11.1665 5.5485 7.0819 -0.0282
8 8 9.8298 8.3948 7.0318 -0.0166
9 8 11.2176 8.6008 7.0031 -0.0282
ITEM: TIMESTEP
160
ITEM: NUMBER OF ATOMS
9
ITEM: BOX BOUNDS pp pp pp
0.0 14.000000
0.0 14.000000
0.0 14.000000
ITEM: ATOMS id type x y z charge
1 6 3.0100 7.0688 6.9132 -0.1677
2 1 3.9074 7.4639 7.6626 0.0633
3 1 2.6582 6.2310 7.5883 0.0633
4 1 2.6436 7.7127 6.4586 0.0633
5 1 3.7936 6.4345 6.4044 0.0633
6 8 9.8084 5.5247 6.9257 -0.0190
7 8 11.1094 5.5027 6.8774 -0.0323
8 8 9.8075 8.4232 6.9533 -0.0190
9 8 11.1703 8.6049 7.0654 -0.0323
ITEM: TIMESTEP
180
ITEM: NUMBER OF ATOMS
9
ITEM: BOX BOUNDS pp pp pp
0.0 14.000000
0.0 14.000000
0.0 14.000000
ITEM: ATOMS id type x y z charge
1 6 3.0473 6.9662 7.0463 -0.1637
2 1 3.9612 7.5473 7.5738 0.0650
3 1 2.6193 6.2716 7.5621 0.0650
4 1 2.6506 7.7767 6.4347 0.0650
5 1 3.9558 6.3411 6.3555 0.0650
6 8 9.8079 5.5062 6.9214 -0.0214
7 8 11.1491 5.5069 6.8994 -0.0363
8 8 9.8083 8.3798 6.9840 -0.0214
9 8 10.9947 8.4696 7.0338 -0.0363
ITEM: TIMESTEP
200
ITEM: NUMBER OF ATOMS
9
ITEM: BOX BOUNDS pp pp pp
0.0 14.000000
0.0 14.000000
0.0 14.000000
ITEM: ATOMS id type x y z charge
1 6 3.0961 6.9437 6.9909 -0.1597
2 1 3.9806 7.6827 7.5897 0.0666
3 1 2.7729 6.2889 7.4502 0.0666
4 1 2.6664 7.6498 6.4279 0.0666
5 1 4.0429 6.4545 6.3060 0.0666
6 8 9.6979 5.5789 7.0665 -0.0237
7 8 11.1317 5.4592 7.0282 -0.0403
8 8 9.8364 8.4358 6.9640 -0.0237
9 8 11.0967 8.4760 6.8706 -0.0403
ITEM: TIMESTEP
220
ITEM: NUMBER OF ATOMS
9
ITEM: BOX BOUNDS pp pp pp
0.0 14.000000
0.0 14.000000
0.0 14.000000
ITEM: ATOMS id type x y z charge
1 6 3.0802 7.0190 6.9252 -0.1556
2 1 3.8946 7.5199 7.5852 0.0683
3 1 2.7555 6.3848 7.5842 0.0683
4 1 2.7710 7.7597 6.3924 0.0683
5 1 4.0441 6.4063 6.4349 0.0683
6 8 9.6711 5.5673 6.9503 -0.0261
7 8 11.0745 5.4304 6.9851 -0.0444
8 8 9.8399 8.4039 7.0084 -0.0261
9 8 11.1018 8.5058 7.0011 -0.0444
ITEM: TIMESTEP
240
ITEM: NUMBER OF ATOMS
9
ITEM: BOX BOUNDS pp pp pp
0.0 14.000000
0.0 14.000000
0.0 14.000000
ITEM: ATOMS id type x y z charge
1 6 3.1342 7.0049 7.0483 -0.1516
2 1 3.9363 7.5669 7.6487 0.0699
3 1 2.8429 6.2759 7.6107 0.0699
4 1 2.8165 7.6683 6.5329 0.0699
5 1 3.9489 6.4475 6.4498 0.0699
6 8 9.6148 5.4674 6.9382 -0.0285
7 8 11.0599 5.4280 7.0633 -0.0484
8 8 9.6886 8.3712 6.9397 -0.0285
9 8 11.0358 8.4725 6.8384 -0.0484
ITEM: TIMESTEP
260
ITEM: NUMBER OF ATOMS
9
ITEM: BOX BOUNDS pp pp pp
0.0 14.000000
0.0 14.000000
0.0 14.000000
ITEM: ATOMS id type x y z charge
1 6 3.0201 7.0869 6.9808 -0.1475
2 1 3.8806 7.4861 7.5231 0.0716
3 1 2.8486 6.3583 7.6915 0.0716
4 1 2.7365 7.6957 6.4052 0.0716
5 1 3.9279 6.4083 6.5174 0.0716
6 8 9.5727 5.6286 7.0863 -0.0309
7 8 10.9529 5.4497 7.0114 -0.0525
8 8 9.7844 8.3922 6.9499 -0.0309
9 8 11.1028 8.5656 6.9981 -0.0525
ITEM: TIMESTEP
280
ITEM: NUMBER OF ATOMS
9
ITEM: BOX BOUNDS pp pp pp
0.0 14.000000
0.0 14.000000
0.0 14.000000
ITEM: ATOMS id type x y z charge
1 6 3.1394 6.8952 7.0529 -0.1435
2 1 4.0765 7.5100 7.5403 0.0733
3 1 2.9033 6.2338 7.5469 0.0733
4 1 2.9294 7.8291 6.4514 0.0733
5 1 3.9707 6.5642 6.4435 0.0733
6 8 9.5919 5.5823 7.0324 -0.0332
7 8 10.9451 5.4402 6.9576 -0.0565
8 8 9.7015 8.3930 6.9640 -0.0332
9 8 11.0747 8.4111 7.0567 -0.0565
ITEM: TIMESTEP
300
ITEM: NUMBER OF ATOMS
9
ITEM: BOX BOUNDS pp pp pp
0.0 14.000000
0.0 14.000000
0.0 14.000000
ITEM: ATOMS id type x y z charge
1 6 3.0669 6.9666 7.0493 -0.1395
2 1 3.9919 7.4322 7.5870 0.0749
3 1 2.8097 6.3133 7.5165 0.0749
4 1 2.8881 7.7867 6.3737 0.0749
5 1 4.0238 6.4522 6.4568 0.0749
6 8 9.5758 5.5847 7.0246 -0.0356
7 8 11.0558 5.5261 6.9776 -0.0605
8 8 9.6494 8.4852 7.0598 -0.0356
9 8 11.0149 8.5091 7.0228 -0.0605
ITEM: TIMESTEP
320
ITEM: NUMBER OF ATOMS
9
ITEM: BOX BOUNDS pp pp pp
0.0 14.000000
0.0 14.000000
0.0 14.000000
ITEM: ATOMS id type x y z charge
1 6 3.1705 7.0180 7.0028 -0.1354
2 1 4.1331 7.4853 7.5284 0.0766
3 1 2.9783 6.2029 7.5828 0.0766
4 1 2.9322 7.7355 6.3340 0.0766
5 1 4.0356 6.4891 6.4167 0.0766
6 8 9.4343 5.7137 6.9753 -0.0380
7 8 11.0833 5.5260 6.9630 -0.0646
8 8 9.5833 8.3595 7.0349 -0.0380
9 8 11.1211 8.4759 6.9299 -0.0646
ITEM: TIMESTEP
340
ITEM: NUMBER OF ATOMS
9
ITEM: BOX BOUNDS pp pp pp
0.0 14.000000
0.0 14.000000
0.0 14.000000
ITEM: ATOMS id type x y z charge
1 6 3.1066 6.9805 7.0223 -0.1314
2 1 4.0475 7.5854 7.6504 0.0782
3 1 2.8489 6.3026 7.4746 0.0782
4 1 2.9826 7.8296 6.4052 0.0782
5 1 4.1266 6.6118 6.4570 0.0782
6 8 9.4926 5.5681 7.0314 -0.0403
7 8 10.9277 5.5714 7.0742 -0.0686
8 8 9.6622 8.3347 6.9970 -0.0403
9 8 10.9708 8.5085 6.9709 -0.0686
ITEM: TIMESTEP
360
ITEM: NUMBER OF ATOMS
9
ITEM: BOX BOUNDS pp pp pp
0.0 14.000000
0.0 14.000000
0.0 14.000000
ITEM: ATOMS id type x y z charge
1 6 3.1829 7.0894 6.8982 -0.1274
2 1 4.1785 7.5100 7.5428 0.0799
3 1 2.9097 6.2863 7.6080 0.0799
4 1 2.8414 7.7954 6.4016 0.0799
5 1 4.2146 6.5067 6.4466 0.0799
6 8 9.4847 5.5610 7.0417 -0.0427
7 8 10.9657 5.5054 7.1145 -0.0726
8 8 9.6146 8.2501 6.9920 -0.0427
9 8 11.0391 8.4518 6.9097 -0.0726
ITEM: TIMESTEP
380
ITEM: NUMBER OF ATOMS
9
ITEM: BOX BOUNDS pp pp pp
0.0 14.000000
0.0 14.000000
0.0 14.000000
ITEM: ATOMS id type x y z charge
1 6 3.0675 6.9849 6.9850 -0.1233
2 1 4.1741 7.4823 7.5547 0.0816
3 1 3.0462 6.2070 7.6273 0.0816
4 1 3.0960 7.8131 6.4319 0.0816
5 1 4.1167 6.5057 6.4009 0.0816
6 8 9.3657 5.6580 7.1438 -0.0451
7 8 11.0248 5.5241 7.0105 -0.0767
8 8 9.6887 8.3251 7.0720 -0.0451
9 8 11.1057 8.5297 6.9820 -0.0767
ITEM: TIMESTEP
400
ITEM: NUMBER OF ATOMS
9
ITEM: BOX BOUNDS pp pp pp
0.0 14.000000
0.0 14.000000
0.0 14.000000
ITEM: ATOMS id type x y z charge
1 6 3.2269 7.0289 6.9699 -0.1193
2 1 4.1381 7.4852 7.5591 0.0832
3 1 3.0259 6.2068 7.5982 0.0832
4 1 2.9757 7.8164 6.3921 0.0832
5 1 4.1152 6.5256 6.3683 0.0832
6 8 9.3600 5.6380 7.0465 -0.0475
7 8 10.9856 5.4636 7.0395 -0.0807
8 8 9.5247 8.3675 7.0506 -0.0475
9 8 11.0839 8.5112 7.0150 -0.0807
ITEM: TIMESTEP
420
ITEM: NUMBER OF ATOMS
9
ITEM: BOX BOUNDS pp pp pp
0.0 14.000000
0.0 14.000000
0.0 14.000000
ITEM: ATOMS id type x y z charge
1 6 3.1616 7.0072 7.0092 -0.1153
2 1 4.1841 7.5383 7.6187 0.0849
3 1 3.1644 6.1622 7.5847 0.0849
4 1 3.1549 7.7086 6.4902 0.0849
5 1 4.2209 6.5199 6.3818 0.0849
6 8 9.3349 5.6014 6.9100 -0.0498
7 8 10.8836 5.5073 6.9509 -0.0847
8 8 9.6308 8.2606 7.0525 -0.0498
9 8 11.0658 8.4267 7.0517 -0.0847
ITEM: TIMESTEP
440
ITEM: NUMBER OF ATOMS
9
ITEM: BOX BOUNDS pp pp pp
0.0 14.000000
0.0 14.000000
0.0 14.000000
ITEM: ATOMS id type x y z charge
1 6 3.0926 6.9032 7.0483 -0.1112
2 1 4.3156 7.6256 7.5220 0.0866
3 1 3.0991 6.1644 7.5486 0.0866
4 1 3.0003 7.7708 6.4587 0.0866
5 1 4.3749 6.3837 6.3481 0.0866
6 8 9.2325 5.6371 7.0852 -0.0522
7 8 10.8883 5.4935 7.0799 -0.0888
8 8 9.5840 8.3834 7.0102 -0.0522
9 8 11.0117 8.5214 6.9500 -0.0888
ITEM: TIMESTEP
460
ITEM: NUMBER OF ATOMS
9
ITEM: BOX BOUNDS pp pp pp
0.0 14.000000
0.0 14.000000
0.0 14.000000
ITEM: ATOMS id type x y z charge
1 6 3.2917 6.8494 7.0984 -0.1072
2 1 4.2076 7.5002 7.5184 0.0882
3 1 3.0492 6.1423 7.4956 0.0882
4 1 3.1530 7.7493 6.4009 0.0882
5 1 4.2327 6.5225 6.3993 0.0882
6 8 9.2958 5.6350 7.0928 -0.0546
7 8 10.8928 5.5760 6.9922 -0.0928
8 8 9.5192 8.3718 7.0783 -0.0546
9 8 10.9620 8.4599 6.8718 -0.0928
ITEM: TIMESTEP
480
ITEM: NUMBER OF ATOMS
9
ITEM: BOX BOUNDS pp pp pp
0.0 14.000000
0.0 14.000000
0.0 14.000000
ITEM: ATOMS id type x y z charge
1 6 3.1257 6.9759 6.9272 -0.1032
2 1 4.3271 7.3993 7.5514 0.0899
3 1 3.2018 6.1587 7.5286 0.0899
4 1 3.1925 7.9864 6.3216 0.0899
5 1 4.2811 6.4597 6.4150 0.0899
6 8 9.2395 5.6071 7.0436 -0.0570
7 8 10.9505 5.5105 7.0642 -0.0968
8 8 9.4994 8.3848 6.9711 -0.0570
9 8 10.9263 8.5354 6.9982 -0.0968
ITEM: TIMESTEP
500
ITEM: NUMBER OF ATOMS
9
ITEM: BOX BOUNDS pp pp pp
0.0 14.000000
0.0 14.000000
0.0 14.000000
ITEM: ATOMS id type x y z charge
1 6 3.1326 6.9820 7.0317 -0.0991
2 1 4.4025 7.4131 7.4345 0.0915
3 1 3.2874 6.1103 7.5153 0.0915
4 1 3.2151 7.7668 6.4743 0.0915
5 1 4.3610 6.4546 6.5224 0.0915
6 8 9.0738 5.6196 6.9308 -0.0593
7 8 11.0001 5.5084 6.9156 -0.1009
8 8 9.4404 8.2879 6.9023 -0.0593
9 8 10.9778 8.3999 7.0983 -0.1009
ITEM: TIMESTEP
520
ITEM: NUMBER OF ATOMS
9
ITEM: BOX BOUNDS pp pp pp
0.0 14.000000
0.0 14.000000
0.0 14.000000
ITEM: ATOMS id type x y z charge
1 6 3.2168 6.9654 7.0177 -0.0951
2 1 4.4828 7.4897 7.5856 0.0932
3 1 3.2987 6.1716 7.5241 0.0932
4 1 3.2440 7.8277 6.4680 0.0932
5 1 4.3746 6.6030 6.4004 0.0932
6 8 9.0922 5.7504 6.9875 -0.0617
7 8 10.8765 5.4914 7.0446 -0.1049
8 8 9.3218 8.3553 7.0089 -0.0617
9 8 10.9738 8.4217 6.9591 -0.1049
ITEM: TIMESTEP
540
ITEM: NUMBER OF ATOMS
9
ITEM: BOX BOUNDS pp pp pp
0.0 14.000000
0.0 14.000000
0.0 14.000000
ITEM: ATOMS id type x y z charge
1 6 3.1695 7.0784 6.8960 -0.0911
2 1 4.4151 7.4632 7.4838 0.0949
3 1 3.2809 6.2211 7.5685 0.0949
4 1 3.3172 7.8973 6.5192 0.0949
5 1 4.3881 6.4807 6.5158 0.0949
6 8 9.1578 5.7323 7.0311 -0.0641
7 8 10.9043 5.5882 7.0616 -0.1089
8 8 9.5660 8.3521 6.9453 -0.0641
9 8 11.0127 8.4666 7.0071 -0.1089
ITEM: TIMESTEP
560
ITEM: NUMBER OF ATOMS
9
ITEM: BOX BOUNDS pp pp pp
0.0 14.000000
0.0 14.000000
0.0 14.000000
ITEM: ATOMS id type x y z charge
1 6 3.1603 7.0590 7.0071 -0.0870
2 1 4.4088 7.4483 7.5438 0.0965
3 1 3.3459 6.1952 7.4891 0.0965
4 1 3.3328 7.7881 6.3614 0.0965
5 1 4.3930 6.5464 6.3778 0.0965
6 8 9.1451 5.7130 6.9067 -0.0665
7 8 10.8992 5.4653 6.9992 -0.1130
8 8 9.3801 8.2586 6.9040 -0.0665
9 8 10.9273 8.4840 6.9738 -0.1130
ITEM: TIMESTEP
580
ITEM: NUMBER OF ATOMS
9
ITEM: BOX BOUNDS pp pp pp
0.0 14.000000
0.0 14.000000
0.0 14.000000
ITEM: ATOMS id type x y z charge
1 6 3.2767 6.9759 6.9756 -0.0830
2 1 4.5310 7.4271 7.5804 0.0982
3 1 3.5018 6.1370 7.5427 0.0982
4 1 3.3228 7.8797 6.4694 0.0982
5 1 4.4628 6.4952 6.3709 0.0982
6 8 9.0204 5.6517 7.0209 -0.0688
7 8 10.7928 5.5162 7.0225 -0.1170
8 8 9.4217 8.2867 6.9909 -0.0688
9 8 10.8722 8.5895 6.9781 -0.1170
ITEM: TIMESTEP
600
ITEM: NUMBER OF ATOMS
9
ITEM: BOX BOUNDS pp pp pp
0.0 14.000000
0.0 14.000000
0.0 14.000000
ITEM: ATOMS id type x y z charge
1 6 3.1509 6.9443 7.0018 -0.0790
2 1 4.4479 7.4308 7.5702 0.0998
3 1 3.3697 6.1550 7.5834 0.0998
4 1 3.5054 7.8881 6.4289 0.0998
5 1 4.5042 6.6887 6.4355 0.0998
6 8 8.9512 5.7587 6.9372 -0.0712
7 8 10.8622 5.4464 7.0681 -0.1210
8 8 9.3779 8.2283 6.9885 -0.0712
9 8 10.9302 8.5335 7.0897 -0.1210
ITEM: TIMESTEP
620
ITEM: NUMBER OF ATOMS
9
ITEM: BOX BOUNDS pp pp pp
0.0 14.000000
0.0 14.000000
0.0 14.000000
ITEM: ATOMS id type x y z charge
1 6 3.3124 7.0913 7.0016 -0.0749
2 1 4.5244 7.4440 7.6206 0.1015
3 1 3.3993 5.9801 7.5313 0.1015
4 1 3.2675 7.9068 6.4843 0.1015
5 1 4.5481 6.4435 6.5417 0.1015
6 8 9.0468 5.7300 6.9772 -0.0736
7 8 10.9061 5.4029 6.9026 -0.1251
8 8 9.4858 8.2009 6.9245 -0.0736
9 8 10.7603 8.5011 7.0008 -0.1251
ITEM: TIMESTEP
640
ITEM: NUMBER OF ATOMS
9
ITEM: BOX BOUNDS pp pp pp
0.0 14.000000
0.0 14.000000
0.0 14.000000
ITEM: ATOMS id type x y z charge
1 6 3.2707 7.0192 7.0496 -0.0596
2 1 4.6928 7.4720 7.5832 0.1078
3 1 3.4948 6.0571 7.4461 0.1078
4 1 3.7032 7.8685 6.6110 0.1078
5 1 4.5510 6.6078 6.3880 0.1078
6 8 8.9672 5.7418 7.0587 -0.0826
7 8 10.8037 5.5279 7.0354 -0.1404
8 8 9.3877 8.2693 6.9268 -0.0826
9 8 10.9022 8.4603 6.9279 -0.1404
ITEM: TIMESTEP
660
ITEM: NUMBER OF ATOMS
9
ITEM: BOX BOUNDS pp pp pp
0.0 14.000000
0.0 14.000000
0.0 14.000000
ITEM: ATOMS id type x y z charge
1 6 3.3835 6.9882 7.0562 -0.0273
2 1 4.8484 7.3010 7.3926 0.1211
3 1 3.7881 5.9737 7.4498 0.1211
4 1 3.8154 7.8128 6.4196 0.1211
5 1 4.9083 6.8196 6.3919 0.1211
6 8 8.5355 5.7695 7.0049 -0.1016
7 8 10.8096 5.4444 7.0315 -0.1727
8 8 8.9791 8.1956 6.9403 -0.1016
9 8 10.7593 8.5279 7.0012 -0.1727
ITEM: TIMESTEP
680
ITEM: NUMBER OF ATOMS
9
ITEM: BOX BOUNDS pp pp pp
0.0 14.000000
0.0 14.000000
0.0 14.000000
ITEM: ATOMS id type x y z charge
1 6 3.4508 7.0473 7.0723 0.0050
2 1 5.0769 7.3552 7.4392 0.1344
3 1 4.0926 6.1308 7.5586 0.1344
4 1 4.0642 7.9433 6.5860 0.1344
5 1 5.1024 6.6798 6.4876 0.1344
6 8 8.3252 5.8972 7.0447 -0.1206
7 8 10.7483 5.4414 7.0859 -0.2050
8 8 8.8817 8.1675 6.9288 -0.1206
9 8 10.7139 8.4537 6.9599 -0.2050
ITEM: TIMESTEP
700
ITEM: NUMBER OF ATOMS
9
ITEM: BOX BOUNDS pp pp pp
0.0 14.000000
0.0 14.000000
0.0 14.000000
ITEM: ATOMS id type x y z charge
1 6 3.4186 6.9624 6.9599 0.0372
2 1 5.1729 7.2479 7.4317 0.1477
3 1 4.3486 5.9647 7.4108 0.1477
4 1 4.3609 8.1339 6.5838 0.1477
5 1 5.2958 6.6804 6.5605 0.1477
6 8 8.0598 5.8654 7.1239 -0.1396
7 8 10.6369 5.5765 7.0345 -0.2372
8 8 8.7273 8.0777 7.0037 -0.1396
9 8 10.5670 8.4476 7.0051 -0.2372
ITEM: TIMESTEP
720
ITEM: NUMBER OF ATOMS
9
ITEM: BOX BOUNDS pp pp pp
0.0 14.000000
0.0 14.000000
0.0 14.000000
ITEM: ATOMS id type x y z charge
1 6 3.3859 7.0496 7.1001 0.0695
2 1 5.5963 7.2415 7.3464 0.1610
3 1 4.6491 5.8124 7.4614 0.1610
4 1 4.7039 8.2101 6.4170 0.1610
5 1 5.4950 6.6798 6.5392 0.1610
6 8 7.8385 5.9116 7.1305 -0.1585
7 8 10.5843 5.5076 6.9872 -0.2695
8 8 8.6071 8.0432 6.9109 -0.1585
9 8 10.5283 8.5631 7.0085 -0.2695
ITEM: TIMESTEP
740
ITEM: NUMBER OF ATOMS
9
ITEM: BOX BOUNDS pp pp pp
0.0 14.000000
0.0 14.000000
0.0 14.000000
ITEM: ATOMS id type x y z charge
1 6 3.6563 7.0080 6.9453 0.1018
2 1 5.7432 7.1183 7.4251 0.1743
3 1 4.9327 5.6389 7.3159 0.1743
4 1 4.9722 8.2577 6.6543 0.1743
5 1 5.7050 6.8812 6.6721 0.1743
6 8 7.6794 5.9894 6.9749 -0.1775
7 8 10.2894 5.4705 6.9746 -0.3018
8 8 8.4883 8.0018 7.0566 -0.1775
9 8 10.5209 8.5132 6.8897 -0.3018
ITEM: TIMESTEP
760
ITEM: NUMBER OF ATOMS
9
ITEM: BOX BOUNDS pp pp pp
0.0 14.000000
0.0 14.000000
0.0 14.000000
ITEM: ATOMS id type x y z charge
1 6 3.6087 6.9441 7.0010 0.1341
2 1 5.9777 6.9970 7.4473 0.1876
3 1 5.2478 5.8223 7.3530 0.1876
4 1 5.0847 8.2409 6.6633 0.1876
5 1 5.9590 6.9574 6.6497 0.1876
6 8 7.4895 6.0785 7.0290 -0.1965
7 8 10.2543 5.5305 7.0732 -0.3341
8 8 8.2081 7.7756 6.9335 -0.1965
9 8 10.2615 8.4729 7.0190 -0.3341
ITEM: TIMESTEP
780
ITEM: NUMBER OF ATOMS
9
ITEM: BOX BOUNDS pp pp pp
0.0 14.000000
0.0 14.000000
0.0 14.000000
ITEM: ATOMS id type x y z charge
1 6 3.7330 6.9067 7.0584 0.1664
2 1 6.1642 7.0395 7.3752 0.2009
3 1 5.5389 5.6492 7.3637 0.2009
4 1 5.4837 8.4203 6.6458 0.2009
5 1 6.2366 6.9109 6.7652 0.2009
6 8 7.0293 6.1582 7.0541 -0.2155
7 8 10.1907 5.5470 7.0446 -0.3664
8 8 8.0759 7.8544 7.0607 -0.2155
9 8 10.2604 8.5033 6.9427 -0.3664
ITEM: TIMESTEP
800
ITEM: NUMBER OF ATOMS
9
ITEM: BOX BOUNDS pp pp pp
0.0 14.000000
0.0 14.000000
0.0 14.000000
ITEM: ATOMS id type x y z charge
1 6 3.6650 6.9817 7.0957 0.1986
2 1 6.4324 7.1143 7.3697 0.2141
3 1 5.7268 5.7862 7.3045 0.2141
4 1 5.7775 8.3732 6.6690 0.2141
5 1 6.3327 7.1301 6.7009 0.2141
6 8 6.9220 6.1723 7.0995 -0.2345
7 8 10.2052 5.4774 7.0228 -0.3986
8 8 8.1112 7.7851 7.0710 -0.2345
9 8 10.2058 8.4850 7.0005 -0.3986
ITEM: TIMESTEP
820
ITEM: NUMBER OF ATOMS
9
ITEM: BOX BOUNDS pp pp pp
0.0 14.000000
0.0 14.000000
0.0 14.000000
ITEM: ATOMS id type x y z charge
1 6 3.7744 7.0841 6.9599 0.2309
2 1 6.6889 6.9255 7.3185 0.2274
3 1 6.0794 5.6434 7.2786 0.2274
4 1 6.1658 8.4559 6.7129 0.2274
5 1 6.5709 7.0296 6.7798 0.2274
6 8 6.5660 6.1743 6.9343 -0.2535
7 8 10.1418 5.4742 7.0388 -0.4309
8 8 7.7933 7.7109 6.9640 -0.2535
9 8 10.0599 8.5281 6.9639 -0.4309
ITEM: TIMESTEP
840
ITEM: NUMBER OF ATOMS
9
ITEM: BOX BOUNDS pp pp pp
0.0 14.000000
0.0 14.000000
0.0 14.000000
ITEM: ATOMS id type x y z charge
1 6 3.8093 6.9691 7.1056 0.2632
2 1 6.8495 6.8150 7.2573 0.2407
3 1 6.3529 5.4957 7.3350 0.2407
4 1 6.3527 8.6287 6.7384 0.2407
5 1 6.8802 7.1061 6.7103 0.2407
6 8 6.3449 6.2829 6.9697 -0.2725
7 8 9.9143 5.5056 7.0239 -0.4632
8 8 7.4963 7.6558 7.0110 -0.2725
9 8 9.9962 8.3883 7.0163 -0.4632
ITEM: TIMESTEP
860
ITEM: NUMBER OF ATOMS
9
ITEM: BOX BOUNDS pp pp pp
0.0 14.000000
0.0 14.000000
0.0 14.000000
ITEM: ATOMS id type x y z charge
1 6 3.9291 7.0781 6.9405 0.2955
2 1 7.1543 6.8639 7.2342 0.2540
3 1 6.6720 5.3661 7.3105 0.2540
4 1 6.6120 8.5664 6.7920 0.2540
5 1 7.1687 7.2636 6.7579 0.2540
6 8 6.1032 6.3637 6.9427 -0.2915
7 8 9.8991 5.5780 7.0144 -0.4955
8 8 7.5365 7.5618 6.9582 -0.2915
9 8 9.9452 8.5193 6.9292 -0.4955
ITEM: TIMESTEP
880
ITEM: NUMBER OF ATOMS
9
ITEM: BOX BOUNDS pp pp pp
0.0 14.000000
0.0 14.000000
0.0 14.000000
ITEM: ATOMS id type x y z charge
1 6 3.9316 7.0493 6.9746 0.3278
2 1 7.2674 6.7971 7.2142 0.2673
3 1 6.9960 5.3330 7.2559 0.2673
4 1 6.9080 8.7154 6.7731 0.2673
5 1 7.3701 7.2150 6.7621 0.2673
6 8 5.9201 6.5111 6.9948 -0.3104
7 8 9.8111 5.5288 6.8438 -0.5278
8 8 7.3130 7.6194 6.9839 -0.3104
9 8 9.7989 8.4570 6.8756 -0.5278
ITEM: TIMESTEP
900
ITEM: NUMBER OF ATOMS
9
ITEM: BOX BOUNDS pp pp pp
0.0 14.000000
0.0 14.000000
0.0 14.000000
ITEM: ATOMS id type x y z charge
1 6 4.0323 7.0041 6.9632 0.3600
2 1 7.4443 6.6994 7.2950 0.2806
3 1 7.0964 5.3751 7.1502 0.2806
4 1 7.1129 8.7353 6.6775 0.2806
5 1 7.6092 7.2249 6.7101 0.2806
6 8 5.6470 6.4612 6.9433 -0.3294
7 8 9.7574 5.5034 6.9532 -0.5600
8 8 7.1897 7.5075 7.0324 -0.3294
9 8 9.8070 8.5862 6.9586 -0.5600
ITEM: TIMESTEP
920
ITEM: NUMBER OF ATOMS
9
ITEM: BOX BOUNDS pp pp pp
0.0 14.000000
0.0 14.000000
0.0 14.000000
ITEM: ATOMS id type x y z charge
1 6 4.0907 7.0204 6.9170 0.3923
2 1 7.8156 6.6668 7.1915 0.2939
3 1 7.4371 5.2343 7.2571 0.2939
4 1 7.5163 8.7025 6.7286 0.2939
5 1 7.8191 7.2561 6.7750 0.2939
6 8 5.3424 6.5196 7.0573 -0.3484
7 8 9.6875 5.5300 7.0059 -0.5923
8 8 7.0819 7.4669 6.9143 -0.3484
9 8 9.6514 8.4249 7.0112 -0.5923
ITEM: TIMESTEP
940
ITEM: NUMBER OF ATOMS
9
ITEM: BOX BOUNDS pp pp pp
0.0 14.000000
0.0 14.000000
0.0 14.000000
ITEM: ATOMS id type x y z charge
1 6 4.1743 7.0211 7.1120 0.4246
2 1 8.0362 6.6771 7.1888 0.3072
3 1 7.6854 5.1611 7.1122 0.3072
4 1 7.4856 8.7806 6.8353 0.3072
5 1 8.0378 7.3513 6.8088 0.3072
6 8 5.1618 6.6734 7.0411 -0.3674
7 8 9.5611 5.5171 6.9874 -0.6246
8 8 6.9114 7.4092 7.0186 -0.3674
9 8 9.6107 8.4820 7.0236 -0.6246
ITEM: TIMESTEP
960
ITEM: NUMBER OF ATOMS
9
ITEM: BOX BOUNDS pp pp pp
0.0 14.000000
0.0 14.000000
0.0 14.000000
ITEM: ATOMS id type x y z charge
1 6 4.2341 6.9139 7.0132 0.4569
2 1 8.2543 6.4547 7.2457 0.3205
3 1 7.9429 5.1788 7.1350 0.3205
4 1 7.9727 8.9388 7.0154 0.3205
5 1 8.2360 7.3886 6.8981 0.3205
6 8 4.7757 6.5012 7.0684 -0.3864
7 8 9.5530 5.4491 7.0758 -0.6569
8 8 6.6900 7.2480 6.9998 -0.3864
9 8 9.5119 8.6016 6.9298 -0.6569
ITEM: TIMESTEP
980
ITEM: NUMBER OF ATOMS
9
ITEM: BOX BOUNDS pp pp pp
0.0 14.000000
0.0 14.000000
0.0 14.000000
ITEM: ATOMS id type x y z charge
1 6 4.1081 7.0814 6.9596 0.4891
2 1 8.5696 6.5040 7.1330 0.3338
3 1 8.2045 5.1352 7.0460 0.3338
4 1 8.2684 8.9525 6.9166 0.3338
5 1 8.4690 7.5219 6.7623 0.3338
6 8 4.6989 6.7075 7.0369 -0.4054
7 8 9.4486 5.4602 7.1806 -0.6891
8 8 6.5739 7.2907 7.0472 -0.4054
9 8 9.3929 8.4125 7.0320 -0.6891
ITEM: TIMESTEP
1000
ITEM: NUMBER OF ATOMS
9
ITEM: BOX BOUNDS pp pp pp
0.0 14.000000
0.0 14.000000
0.0 14.000000
ITEM: ATOMS id type x y z charge
1 6 4.2634 6.9949 6.9654 0.5214
2 1 8.6787 6.5071 7.0256 0.3471
3 1 8.6235 4.9169 6.9744 0.3471
4 1 8.4742 8.9424 6.9767 0.3471
5 1 8.7095 7.4655 6.7901 0.3471
6 8 4.3506 6.6849 6.9848 -0.4244
7 8 9.3130 5.4209 6.9544 -0.7214
8 8 6.3554 7.1396 6.9744 -0.4244
9 8 9.3101 8.5417 6.9737 -0.7214
ITEM: TIMESTEP
1020
ITEM: NUMBER OF ATOMS
9
ITEM: BOX BOUNDS pp pp pp
0.0 14.000000
0.0 14.000000
0.0 14.000000
ITEM: ATOMS id type x y z charge
1 6 4.2326 7.0293 7.0251 0.5537
2 1 8.9469 6.3644 6.9720 0.3603
3 1 8.7836 4.9387 7.0222 0.3603
4 1 8.6788 9.1413 6.9375 0.3603
5 1 8.9871 7.6538 6.9051 0.3603
6 8 4.1925 6.8624 6.9640 -0.4434
7 8 9.2768 5.4640 7.0078 -0.7537
8 8 6.0544 7.1887 6.9127 -0.4434
9 8 9.3762 8.3648 7.0941 -0.7537
ITEM: TIMESTEP
1040
ITEM: NUMBER OF ATOMS
9
ITEM: BOX BOUNDS pp pp pp
0.0 14.000000
0.0 14.000000
0.0 14.000000
ITEM: ATOMS id type x y z charge
1 6 4.4538 6.9945 6.9734 0.5670
2 1 8.9709 6.3989 7.0842 0.3658
3 1 8.7998 4.8578 7.0537 0.3658
4 1 8.9233 9.1048 6.9531 0.3658
5 1 8.9677 7.5335 6.8435 0.3658
6 8 3.9264 6.8197 6.9023 -0.4512
7 8 9.2108 5.5189 6.8954 -0.7670
8 8 6.0584 7.1897 6.9806 -0.4512
9 8 9.1854 8.5129 6.9310 -0.7670
ITEM: TIMESTEP
1060
ITEM: NUMBER OF ATOMS
9
ITEM: BOX BOUNDS pp pp pp
0.0 14.000000
0.0 14.000000
0.0 14.000000
ITEM: ATOMS id type x y z charge
1 6 4.4300 6.9028 7.0936 0.5701
2 1 9.1450 6.4361 7.1420 0.3671
3 1 8.9509 4.7494 7.0464 0.3671
4 1 8.7797 9.1490 7.0045 0.3671
5 1 9.0037 7.6939 6.8544 0.3671
6 8 3.9643 6.8440 6.9692 -0.4530
7 8 9.2151 5.4726 6.9745 -0.7701
8 8 6.0611 7.1150 6.9765 -0.4530
9 8 9.1726 8.4169 7.0803 -0.7701
ITEM: TIMESTEP
1080
ITEM: NUMBER OF ATOMS
9
ITEM: BOX BOUNDS pp pp pp
0.0 14.000000
0.0 14.000000
0.0 14.000000
ITEM: ATOMS id type x y z charge
1 6 4.3288 7.0266 7.0977 0.5731
2 1 9.2179 6.3687 7.0168 0.3684
3 1 8.9450 4.9074 7.1324 0.3684
4 1 8.9102 9.0887 6.9165 0.3684
5 1 9.0775 7.6224 6.9184 0.3684
6 8 3.9900 6.8024 7.0246 -0.4548
7 8 9.1723 5.5521 6.9551 -0.7731
8 8 5.9970 7.1832 7.0093 -0.4548
9 8 9.2210 8.5761 7.0041 -0.7731
ITEM: TIMESTEP
1100
ITEM: NUMBER OF ATOMS
9
ITEM: BOX BOUNDS pp pp pp
0.0 14.000000
0.0 14.000000
0.0 14.000000
ITEM: ATOMS id type x y z charge
1 6 4.2763 6.9948 6.9835 0.5762
2 1 8.9936 6.4495 7.0150 0.3696
3 1 8.9416 4.8113 7.0819 0.3696
4 1 9.0081 9.1370 7.0020 0.3696
5 1 9.1002 7.6301 6.8904 0.3696
6 8 3.8392 6.8137 6.9606 -0.4566
7 8 9.2597 5.5645 7.0343 -0.7762
8 8 6.0891 7.1550 7.0501 -0.4566
9 8 9.2098 8.6026 6.9488 -0.7762
ITEM: TIMESTEP
1120
ITEM: NUMBER OF ATOMS
9
ITEM: BOX BOUNDS pp pp pp
0.0 14.000000
0.0 14.000000
0.0 14.000000
ITEM: ATOMS id type x y z charge
1 6 4.3040 6.9497 7.0323 0.5793
2 1 9.1255 6.3601 6.9677 0.3709
3 1 8.9641 4.8830 7.1199 0.3709
4 1 9.0206 9.1421 7.0951 0.3709
5 1 9.1403 7.5928 6.9709 0.3709
6 8 3.8939 6.8280 7.0481 -0.4584
7 8 9.0836 5.4865 6.8693 -0.7793
8 8 6.0437 7.1631 7.0640 -0.4584
9 8 9.2439 8.6104 6.9908 -0.7793
ITEM: TIMESTEP
1140
ITEM: NUMBER OF ATOMS
9
ITEM: BOX BOUNDS pp pp pp
0.0 14.000000
0.0 14.000000
0.0 14.000000
ITEM: ATOMS id type x y z charge
1 6 4.4137 7.0401 7.0343 0.5824
2 1 9.0694 6.4482 7.0974 0.3722
3 1 9.0386 4.8397 6.9333 0.3722
4 1 9.0835 9.1878 6.8672 0.3722
5 1 9.2022 7.5518 6.8918 0.3722
6 8 3.8274 6.8359 6.9442 -0.4602
7 8 9.1989 5.4663 6.9560 -0.7824
8 8 6.0588 7.0630 7.0530 -0.4602
9 8 9.1576 8.4859 6.9837 -0.7824
ITEM: TIMESTEP
1160
ITEM: NUMBER OF ATOMS
9
ITEM: BOX BOUNDS pp pp pp
0.0 14.000000
0.0 14.000000
0.0 14.000000
ITEM: ATOMS id type x y z charge
1 6 4.3976 6.9333 7.0638 0.5854
2 1 9.1687 6.3916 7.0346 0.3734
3 1 9.1083 4.8061 7.0329 0.3734
4 1 8.9773 9.1640 6.9224 0.3734
5 1 9.0615 7.6246 6.9683 0.3734
6 8 3.8464 6.9554 7.0474 -0.4620
7 8 9.2735 5.6351 7.0223 -0.7854
8 8 6.0307 7.0458 6.9640 -0.4620
9 8 9.1675 8.5808 7.0533 -0.7854
ITEM: TIMESTEP
1180
ITEM: NUMBER OF ATOMS
9
ITEM: BOX BOUNDS pp pp pp
0.0 14.000000
0.0 14.000000
0.0 14.000000
ITEM: ATOMS id type x y z charge
1 6 4.3633 7.0206 7.0417 0.5885
2 1 9.1830 6.2925 7.1094 0.3747
3 1 9.1886 4.8686 6.9757 0.3747
4 1 9.0530 9.1938 6.9590 0.3747
5 1 9.0448 7.7035 6.9695 0.3747
6 8 3.8078 6.8427 7.0331 -0.4638
7 8 9.1339 5.4370 6.9647 -0.7885
8 8 5.9632 7.2382 6.9465 -0.4638
9 8 9.2676 8.4416 6.9553 -0.7885
ITEM: TIMESTEP
1200
ITEM: NUMBER OF ATOMS
9
ITEM: BOX BOUNDS pp pp pp
0.0 14.000000
0.0 14.000000
0.0 14.000000
ITEM: ATOMS id type x y z charge
1 6 4.4031 6.9788 7.0299 0.5916
2 1 9.2614 6.3565 7.1232 0.3759
3 1 9.1196 4.8209 7.0157 0.3759
4 1 9.0651 9.1828 6.8935 0.3759
5 1 9.1001 7.6143 7.0226 0.3759
6 8 3.8607 6.8795 6.9639 -0.4656
7 8 9.2297 5.5168 7.0100 -0.7916
8 8 6.0317 7.1319 7.0267 -0.4656
9 8 9.1397 8.5318 7.0790 -0.7916
ITEM: TIMESTEP
1220
ITEM: NUMBER OF ATOMS
9
ITEM: BOX BOUNDS pp pp pp
0.0 14.000000
0.0 14.000000
0.0 14.000000
ITEM: ATOMS id type x y z charge
1 6 4.3428 7.0570 7.0040 0.5947
2 1 9.1607 6.2873 7.0441 0.3772
3 1 9.0935 4.8835 6.9922 0.3772
4 1 9.1034 9.0540 6.9146 0.3772
5 1 9.1512 7.5775 6.8588 0.3772
6 8 3.7678 6.8869 7.0379 -0.4675
7 8 9.0898 5.5116 6.8436 -0.7947
8 8 6.0331 7.0787 7.0162 -0.4675
9 8 9.1818 8.4804 7.0230 -0.7947
ITEM: TIMESTEP
1240
ITEM: NUMBER OF ATOMS
9
ITEM: BOX BOUNDS pp pp pp
0.0 14.000000
0.0 14.000000
0.0 14.000000
ITEM: ATOMS id type x y z charge
1 6 4.4105 6.9735 7.0771 0.5977
2 1 9.1345 6.2390 6.9081 0.3785
3 1 9.0298 4.9427 7.0875 0.3785
4 1 9.2555 9.1595 6.9282 0.3785
5 1 9.2247 7.5058 7.0490 0.3785
6 8 3.6805 7.0172 6.9880 -0.4693
7 8 9.1650 5.5299 6.9791 -0.7977
8 8 6.0493 7.0298 7.0584 -0.4693
9 8 9.1740 8.4727 6.9289 -0.7977
ITEM: TIMESTEP
1260
ITEM: NUMBER OF ATOMS
9
ITEM: BOX BOUNDS pp pp pp
0.0 14.000000
0.0 14.000000
0.0 14.000000
ITEM: ATOMS id type x y z charge
1 6 4.4577 6.9723 6.9910 0.6008
2 1 9.2692 6.3823 7.0777 0.3797
3 1 9.0632 4.8654 7.0172 0.3797
4 1 9.0398 9.1884 6.9990 0.3797
5 1 9.2970 7.6711 6.9416 0.3797
6 8 3.6809 6.8936 7.1051 -0.4711
7 8 9.2194 5.4571 7.0932 -0.8008
8 8 5.8919 6.9982 6.9623 -0.4711
9 8 9.2051 8.4657 7.0039 -0.8008
ITEM: TIMESTEP
1280
ITEM: NUMBER OF ATOMS
9
ITEM: BOX BOUNDS pp pp pp
0.0 14.000000
0.0 14.000000
0.0 14.000000
ITEM: ATOMS id type x y z charge
1 6 4.3865 7.0445 7.0139 0.6039
2 1 9.2214 6.3100 7.1145 0.3810
3 1 9.1554 4.8415 7.0469 0.3810
4 1 9.2605 9.1200 6.8842 0.3810
5 1 9.2503 7.7592 7.0805 0.3810
6 8 3.6193 6.9571 6.9810 -0.4729
7 8 9.2011 5.5210 7.0207 -0.8039
8 8 5.8471 6.9837 7.0634 -0.4729
9 8 9.0941 8.4726 6.9665 -0.8039
ITEM: TIMESTEP
1300
ITEM: NUMBER OF ATOMS
9
ITEM: BOX BOUNDS pp pp pp
0.0 14.000000
0.0 14.000000
0.0 14.000000
ITEM: ATOMS id type x y z charge
1 6 4.5144 7.0268 6.9085 0.6070
2 1 9.2029 6.2484 7.0981 0.3823
3 1 9.2849 4.7956 7.0313 0.3823
4 1 9.2592 9.2055 6.9586 0.3823
5 1 9.2690 7.6367 6.8919 0.3823
6 8 3.6478 7.0063 7.0369 -0.4747
7 8 9.1293 5.5176 7.1198 -0.8070
8 8 5.8231 7.1076 7.1109 -0.4747
9 8 9.1731 8.4076 7.0385 -0.8070
ITEM: TIMESTEP
1320
ITEM: NUMBER OF ATOMS
9
ITEM: BOX BOUNDS pp pp pp
0.0 14.000000
0.0 14.000000
0.0 14.000000
ITEM: ATOMS id type x y z charge
1 6 4.3354 7.0388 7.0624 0.6100
2 1 9.3089 6.3028 7.0771 0.3835
3 1 9.2676 4.8604 7.0376 0.3835
4 1 9.3087 9.1808 6.9725 0.3835
5 1 9.3111 7.7156 7.0178 0.3835
6 8 3.6798 6.8180 6.9899 -0.4765
7 8 9.0822 5.4983 7.0322 -0.8100
8 8 5.8123 7.1377 7.0072 -0.4765
9 8 9.1177 8.4820 6.8875 -0.8100
ITEM: TIMESTEP
1340
ITEM: NUMBER OF ATOMS
9
ITEM: BOX BOUNDS pp pp pp
0.0 14.000000
0.0 14.000000
0.0 14.000000
ITEM: ATOMS id type x y z charge
1 6 4.4429 7.0155 7.0048 0.6131
2 1 9.3742 6.2528 6.9644 0.3848
3 1 9.3437 4.8788 7.1542 0.3848
4 1 9.1515 9.1635 6.8569 0.3848
5 1 9.2089 7.6555 7.0284 0.3848
6 8 3.5742 6.9308 6.9094 -0.4783
7 8 9.0297 5.4328 7.1131 -0.8131
8 8 5.8998 7.0584 6.9232 -0.4783
9 8 9.1218 8.4840 7.1160 -0.8131
ITEM: TIMESTEP
1360
ITEM: NUMBER OF ATOMS
9
ITEM: BOX BOUNDS pp pp pp
0.0 14.000000
0.0 14.000000
0.0 14.000000
ITEM: ATOMS id type x y z charge
1 6 4.5066 7.0898 7.0046 0.6162
2 1 9.3702 6.3079 6.9952 0.3861