ITEM: TIMESTEP
0
ITEM: NUMBER OF ATOMS
1000
ITEM: BOX BOUNDS pp pp pp
0.0 50.0
0.0 50.0
0.0 50.0
ITEM: ATOMS id type x y z temperature
1 1 5.1997 1.9900 0.0000 290.0167
2 1 10.3973 1.9601 0.0000 280.1331
3 1 15.5910 1.9107 0.0000 270.4480
4 1 20.7788 1.8421 0.0000 261.0582
5 1 25.9589 1.7552 0.0000 252.0574
6 1 31.1293 1.6507 0.0000 243.5358
7 1 36.2884 1.5297 0.0000 235.5782
8 1 41.4347 1.3934 0.0000 228.2644
9 1 46.5667 1.2432 0.0000 221.6673
10 1 1.6829 6.0806 0.0000 215.8529
11 1 6.7824 5.9072 0.0000 210.8793
12 1 11.8641 5.7247 0.0000 206.7961
13 1 16.9271 5.5350 0.0000 203.6442
14 1 21.9709 5.3399 0.0000 201.4550
15 1 26.9950 5.1415 0.0000 200.2505
16 1 31.9991 4.9416 0.0000 200.0426
17 1 36.9833 4.7423 0.0000 200.8335
18 1 41.9477 4.5456 0.0000 202.6152
19 1 46.8926 4.3534 0.0000 205.3700
20 1 1.8186 9.1677 0.0000 209.0703
21 1 6.7264 8.9903 0.0000 213.6791
22 1 11.6170 8.8230 0.0000 219.1504
23 1 16.4914 8.6674 0.0000 225.4295
24 1 21.3509 8.5252 0.0000 232.4537
25 1 26.1969 8.3977 0.0000 240.1528
26 1 31.0310 8.2862 0.0000 248.4499
27 1 35.8548 8.1919 0.0000 257.2620
28 1 40.6700 8.1156 0.0000 266.5012
29 1 45.4785 8.0581 0.0000 276.0751
30 1 0.2822 13.0200 0.0000 285.8880
31 1 5.0832 13.0017 0.0000 295.8419
32 1 9.8833 13.0034 0.0000 305.8374
33 1 14.6845 13.0250 0.0000 315.7746
34 1 19.4889 13.0664 0.0000 325.5541
35 1 24.2984 13.1271 0.0000 335.0783
36 1 29.1150 13.2065 0.0000 344.2520
37 1 33.9403 13.3038 0.0000 352.9836
38 1 38.7763 13.4181 0.0000 361.1858
39 1 43.6245 13.5481 0.0000 368.7766
40 1 -1.5136 18.6927 0.0000 375.6802
41 1 3.3634 18.8504 0.0000 381.8277
42 1 8.2568 19.0195 0.0000 387.1576
43 1 13.1677 19.1984 0.0000 391.6166
44 1 18.0968 19.3853 0.0000 395.1602
45 1 23.0449 19.5784 0.0000 397.7530
46 1 28.0126 19.7757 0.0000 399.3691
47 1 33.0002 19.9752 0.0000 399.9923
48 1 38.0077 20.1750 0.0000 399.6165
49 1 43.0351 20.3730 0.0000 398.2453
50 1 -1.9178 25.5673 0.0000 395.8924
51 1 3.1484 25.7560 0.0000 392.5815
52 1 8.2331 25.9370 0.0000 388.3455
53 1 13.3355 26.1087 0.0000 383.2267
54 1 18.4545 26.2694 0.0000 377.2764
55 1 23.5889 26.4173 0.0000 370.5540
56 1 28.7375 26.5511 0.0000 363.1267
57 1 33.8986 26.6694 0.0000 355.0686
58 1 39.0708 26.7710 0.0000 346.4602
59 1 44.2522 26.8550 0.0000 337.3877
60 1 -0.5588 31.9203 0.0000 327.9415
61 1 4.6357 31.9665 0.0000 318.2163
62 1 9.8338 31.9931 0.0000 308.3089
63 1 15.0336 31.9997 0.0000 298.3186
64 1 20.2331 31.9864 0.0000 288.3451
65 1 25.4302 31.9532 0.0000 278.4880
66 1 30.6231 31.9005 0.0000 268.8459
67 1 35.8097 31.8288 0.0000 259.5150
68 1 40.9882 31.7388 0.0000 250.5887
69 1 46.1569 31.6315 0.0000 242.1560
70 1 1.3140 36.5078 0.0000 234.3013
71 1 6.4579 36.3691 0.0000 227.1031
72 1 11.5873 36.2167 0.0000 220.6332
73 1 16.7009 36.0522 0.0000 214.9563
74 1 21.7974 35.8771 0.0000 210.1292
75 1 26.8760 35.6933 0.0000 206.2000
76 1 31.9358 35.5025 0.0000 203.2080
77 1 36.9763 35.3067 0.0000 201.1832
78 1 41.9971 35.1079 0.0000 200.1457
79 1 46.9979 34.9080 0.0000 200.1059
80 1 1.9787 39.7090 0.0000 201.0642
81 1 6.9398 39.5129 0.0000 203.0110
82 1 11.8815 39.3217 0.0000 205.9269
83 1 16.8043 39.1372 0.0000 209.7828
84 1 21.7092 38.9614 0.0000 214.5401
85 1 26.5970 38.7960 0.0000 220.1513
86 1 31.4688 38.6426 0.0000 226.5603
87 1 36.3259 38.5027 0.0000 233.7031
88 1 41.1698 38.3778 0.0000 241.5083
89 1 46.0020 38.2691 0.0000 249.8979
90 1 0.8242 43.1777 0.0000 258.7882
91 1 5.6382 43.1046 0.0000 268.0902
92 1 10.4458 43.0503 0.0000 277.7110
93 1 15.2489 43.0155 0.0000 287.5546
94 1 20.0496 43.0006 0.0000 297.5225
95 1 24.8497 43.0057 0.0000 307.5151
96 1 29.6513 43.0306 0.0000 317.4327
97 1 34.4565 43.0753 0.0000 327.1761
98 1 39.2670 43.1391 0.0000 336.6479
99 1 44.0849 43.2216 0.0000 345.7536
100 1 -1.0880 -1.6781 5.0000 354.4021
101 1 3.7499 -1.5611 5.0000 362.5071
102 1 8.6003 -1.4285 5.0000 369.9875
103 1 13.4646 -1.2817 5.0000 376.7686
104 1 18.3443 -1.1220 5.0000 382.7826
105 1 23.2406 -0.9511 5.0000 387.9696
106 1 28.1544 -0.7707 5.0000 392.2775
107 1 33.0867 -0.5826 5.0000 395.6635
108 1 38.0381 -0.3887 5.0000 398.0936
109 1 43.0091 -0.1909 5.0000 399.5436
110 1 -2.0000 5.0089 5.0000 399.9990
111 1 3.0109 5.2085 5.0000 399.4553
112 1 8.0416 5.4060 5.0000 397.9178
113 1 13.0920 5.5995 5.0000 395.4019
114 1 18.1613 5.7870 5.0000 391.9329
115 1 23.2491 5.9666 5.0000 387.5452
116 1 28.3543 6.1366 5.0000 382.2829
117 1 33.4760 6.2952 5.0000 376.1984
118 1 38.6129 6.4409 5.0000 369.3525
119 1 43.7637 6.5721 5.0000 361.8137
120 1 -1.0731 11.6877 5.0000 353.6573
121 1 4.1007 11.7864 5.0000 344.9647
122 1 9.2835 11.8673 5.0000 335.8229
123 1 14.4735 11.9295 5.0000 326.3232
124 1 19.6688 11.9724 5.0000 316.5604
125 1 24.8674 11.9956 5.0000 306.6322
126 1 30.0672 11.9989 5.0000 296.6377
127 1 35.2665 11.9822 5.0000 286.6768
128 1 40.4630 11.9457 5.0000 276.8490
129 1 45.6549 11.8897 5.0000 267.2526
130 1 0.8403 16.8149 5.0000 257.9833
131 1 6.0173 16.7219 5.0000 249.1339
132 1 11.1841 16.6118 5.0000 240.7926
133 1 16.3391 16.4855 5.0000 233.0430
134 1 21.4808 16.3444 5.0000 225.9624
135 1 26.6076 16.1898 5.0000 219.6216
136 1 31.7183 16.0234 5.0000 214.0838
137 1 36.8119 15.8467 5.0000 209.4045
138 1 41.8874 15.6616 5.0000 205.6304
139 1 46.9440 15.4699 5.0000 202.7992
140 1 1.9812 20.2735 5.0000 200.9393
141 1 6.9986 20.0743 5.0000 200.0691
142 1 11.9961 19.8744 5.0000 200.1973
143 1 16.9735 19.6758 5.0000 201.3228
144 1 21.9313 19.4804 5.0000 203.4342
145 1 26.8698 19.2902 5.0000 206.5105
146 1 31.7896 19.1070 5.0000 210.5209
147 1 36.6915 18.9328 5.0000 215.4253
148 1 41.5765 18.7693 5.0000 221.1748
149 1 46.4458 18.6181 5.0000 227.7119
150 1 1.3006 23.4806 5.0000 234.9712
151 1 6.1424 23.3584 5.0000 242.8803
152 1 10.9728 23.2525 5.0000 251.3601
153 1 15.7935 23.1641 5.0000 260.3259
154 1 20.6062 23.0941 5.0000 269.6882
155 1 25.4129 23.0431 5.0000 279.3533
156 1 30.2155 23.0116 5.0000 289.2246
157 1 35.0159 23.0001 5.0000 299.2037
158 1 39.8162 23.0085 5.0000 309.1907
159 1 44.6183 23.0368 5.0000 319.0859
160 1 -0.5758 28.0847 5.0000 328.7903
161 1 4.2359 28.1517 5.0000 338.2071
162 1 9.0552 28.2373 5.0000 347.2422
163 1 13.8839 28.3404 5.0000 355.8052
164 1 18.7238 28.4601 5.0000 363.8107
165 1 23.5764 28.5952 5.0000 371.1785
166 1 28.4433 28.7443 5.0000 377.8352
167 1 33.3257 28.9060 5.0000 383.7142
168 1 38.2249 29.0786 5.0000 388.7567
169 1 43.1418 29.2605 5.0000 392.9124
170 1 -1.9228 34.4497 5.0000 396.1397
171 1 3.0319 34.6444 5.0000 398.4065
172 1 8.0062 34.8426 5.0000 399.6900
173 1 13.0005 35.0425 5.0000 399.9774
174 1 18.0147 35.2419 5.0000 399.2659
175 1 23.0487 35.4389 5.0000 397.5626
176 1 28.1023 35.6315 5.0000 394.8844
177 1 33.1748 35.8178 5.0000 391.2582
178 1 38.2656 35.9959 5.0000 386.7202
179 1 43.3737 36.1641 5.0000 381.3157
180 1 -1.5020 41.3206 5.0000 375.0987
181 1 3.6374 41.4640 5.0000 368.1314
182 1 8.7903 41.5927 5.0000 360.4833
183 1 13.9554 41.7055 5.0000 352.2309
184 1 19.1309 41.8013 5.0000 343.4566
185 1 24.3150 41.8790 5.0000 334.2481
186 1 29.5061 41.9380 5.0000 324.6974
187 1 34.7020 41.9777 5.0000 314.8999
188 1 39.9009 41.9975 5.0000 304.9536
189 1 45.1008 41.9975 5.0000 294.9577
190 1 0.2998 46.9774 5.0000 285.0123
191 1 5.4957 46.9376 5.0000 275.2166
192 1 10.6866 46.8784 5.0000 265.6685
193 1 15.8707 46.8005 5.0000 256.4635
194 1 21.0461 46.7046 5.0000 247.6934
195 1 26.2111 46.5916 5.0000 239.4460
196 1 31.3639 46.4628 5.0000 231.8036
197 1 36.5031 46.3193 5.0000 224.8427
198 1 41.6273 46.1626 5.0000 218.6326
199 1 46.7353 45.9944 5.0000 213.2356
200 1 1.8259 0.8162 10.0000 208.7055
201 1 6.8982 0.6298 10.0000 205.0875
202 1 11.9516 0.4371 10.0000 202.4179
203 1 16.9855 0.2401 10.0000 200.7234
204 1 21.9996 0.0407 10.0000 200.0207
205 1 26.9937 -0.1591 10.0000 200.3170
206 1 31.9678 -0.3574 10.0000 201.6093
207 1 36.9223 -0.5520 10.0000 203.8847
208 1 41.8576 -0.7412 10.0000 207.1205
209 1 46.7743 -0.9229 10.0000 211.2842
210 1 1.6733 3.9045 10.0000 216.3344
211 1 6.5556 3.7430 10.0000 222.2206
212 1 11.4223 3.5939 10.0000 228.8839
213 1 16.2748 3.4590 10.0000 236.2577
214 1 21.1146 3.3394 10.0000 244.2685
215 1 25.9433 3.2364 10.0000 252.8361
216 1 30.7625 3.1511 10.0000 261.8750
217 1 35.5741 3.0842 10.0000 271.2947
218 1 40.3800 3.0364 10.0000 281.0013
219 1 45.1820 3.0083 10.0000 290.8978
220 1 -0.0177 8.0001 10.0000 300.8851
221 1 4.7827 8.0118 10.0000 310.8637
222 1 9.5853 8.0435 10.0000 320.7336
223 1 14.3921 8.0946 10.0000 330.3965
224 1 19.2049 8.1648 10.0000 339.7556
225 1 24.0257 8.2534 10.0000 348.7175
226 1 28.8561 8.3594 10.0000 357.1926
227 1 33.6981 8.4818 10.0000 365.0962
228 1 38.5530 8.6193 10.0000 372.3495
229 1 43.4224 8.7707 10.0000 378.8798
230 1 -1.6924 13.9343 10.0000 384.6220
231 1 3.2096 14.1086 10.0000 389.5187
232 1 8.1296 14.2918 10.0000 393.5210
233 1 13.0682 14.4821 10.0000 396.5888
234 1 18.0262 14.6775 10.0000 398.6916
235 1 23.0038 14.8762 10.0000 399.8082
236 1 28.0014 15.0761 10.0000 399.9276
237 1 33.0190 15.2752 10.0000 399.0486
238 1 38.0564 15.4716 10.0000 397.1798
239 1 43.1132 15.6633 10.0000 394.3401
240 1 -1.8112 20.8484 10.0000 390.5578
241 1 3.2826 21.0249 10.0000 385.8707
242 1 8.3935 21.1913 10.0000 380.3256
243 1 13.5204 21.3457 10.0000 373.9779
244 1 18.6622 21.4867 10.0000 366.8910
245 1 23.8173 21.6128 10.0000 359.1358
246 1 28.9842 21.7228 10.0000 350.7897
247 1 34.1613 21.8156 10.0000 341.9361
248 1 39.3467 21.8903 10.0000 332.6635
249 1 44.5387 21.9461 10.0000 323.0646
250 1 -0.2647 26.9824 10.0000 313.2352
251 1 4.9345 26.9989 10.0000 303.2735
252 1 10.1344 26.9955 10.0000 293.2792
253 1 15.3330 26.9721 10.0000 283.3520
254 1 20.5282 26.9290 10.0000 273.5911
255 1 25.7181 26.8666 10.0000 264.0942
256 1 30.9009 26.7856 10.0000 254.9559
257 1 36.0746 26.6868 10.0000 246.2678
258 1 41.2377 26.5710 10.0000 238.1165
259 1 46.3883 26.4396 10.0000 230.5835
260 1 1.5251 31.2938 10.0000 223.7442
261 1 6.6467 31.1351 10.0000 217.6667
262 1 11.7518 30.9651 10.0000 212.4119
263 1 16.8394 30.7853 10.0000 208.0322
264 1 21.9086 30.5978 10.0000 204.5715
265 1 26.9587 30.4043 10.0000 202.0642
266 1 31.9893 30.2067 10.0000 200.5355
267 1 37.0000 30.0071 10.0000 200.0006
268 1 41.9907 29.8074 10.0000 200.4649
269 1 46.9615 29.6096 10.0000 201.9237
270 1 1.9128 34.4157 10.0000 204.3624
271 1 6.8449 34.2277 10.0000 207.7567
272 1 11.7585 34.0474 10.0000 212.0727
273 1 16.6547 33.8766 10.0000 217.2672
274 1 21.5342 33.7170 10.0000 223.2884
275 1 26.3985 33.5702 10.0000 230.0760
276 1 31.2488 33.4378 10.0000 237.5623
277 1 36.0866 33.3209 10.0000 245.6724
278 1 40.9135 33.2208 10.0000 254.3254
279 1 45.7313 33.1385 10.0000 263.4347
280 1 0.5418 38.0748 10.0000 272.9094
281 1 5.3469 38.0303 10.0000 282.6548
282 1 10.1485 38.0055 10.0000 292.5735
283 1 14.9487 38.0007 10.0000 302.5663
284 1 19.7493 38.0158 10.0000 312.5336
285 1 24.5525 38.0507 10.0000 322.3756
286 1 29.3601 38.1051 10.0000 331.9940
287 1 34.1741 38.1785 10.0000 341.2928
288 1 38.9964 38.2700 10.0000 350.1789
289 1 43.8287 38.3789 10.0000 358.5637
290 1 -1.3273 43.5039 10.0000 366.3634
291 1 3.5300 43.6439 10.0000 373.5000
292 1 8.4020 43.7974 10.0000 379.9021
293 1 13.2899 43.9629 10.0000 385.5060
294 1 18.1949 44.1388 10.0000 390.2555
295 1 23.1179 44.3234 10.0000 394.1031
296 1 28.0598 44.5146 10.0000 397.0106
297 1 33.0210 44.7108 10.0000 398.9487
298 1 38.0020 44.9098 10.0000 399.8982
299 1 43.0030 45.1097 10.0000 399.8495
300 1 -1.9761 0.3085 15.0000 398.8032
301 1 3.0646 0.5042 15.0000 396.7696
302 1 8.1246 0.6949 15.0000 393.7692
303 1 13.2034 0.8787 15.0000 389.8318
304 1 18.3001 1.0537 15.0000 384.9969
305 1 23.4137 1.2181 15.0000 379.3127
306 1 28.5433 1.3704 15.0000 372.8361
307 1 33.6874 1.5090 15.0000 365.6317
308 1 38.8446 1.6325 15.0000 357.7715
309 1 44.0133 1.7397 15.0000 349.3341
310 1 -0.8081 6.8295 15.0000 340.4038
311 1 4.3786 6.9010 15.0000 331.0697
312 1 9.5715 6.9536 15.0000 321.4253
313 1 14.7687 6.9866 15.0000 311.5667
314 1 19.9681 6.9997 15.0000 301.5926
315 1 25.1679 6.9929 15.0000 291.6026
316 1 30.3661 6.9662 15.0000 281.6964
317 1 35.5605 6.9198 15.0000 271.9732
318 1 40.7494 6.8543 15.0000 262.5300
319 1 45.9308 6.7702 15.0000 253.4612
320 1 1.1029 11.6684 15.0000 244.8573
321 1 6.2639 11.5500 15.0000 236.8045
322 1 11.4123 11.4161 15.0000 229.3831
323 1 16.5467 11.2680 15.0000 222.6672
324 1 21.6655 11.1073 15.0000 216.7241
325 1 26.7677 10.9355 15.0000 211.6130
326 1 31.8523 10.7543 15.0000 207.3850
327 1 36.9184 10.5656 15.0000 204.0824
328 1 41.9652 10.3713 15.0000 201.7382
329 1 46.9925 10.1732 15.0000 200.3758
330 1 1.9998 14.9734 15.0000 200.0088
331 1 6.9872 14.7739 15.0000 200.6409
332 1 11.9547 14.5767 15.0000 202.2657
333 1 16.9027 14.3836 15.0000 204.8671
334 1 21.8316 14.1968 15.0000 208.4190
335 1 26.7423 14.0179 15.0000 212.8860
336 1 31.6355 13.8489 15.0000 218.2234
337 1 36.5124 13.6914 15.0000 224.3778
338 1 41.3742 13.5469 15.0000 231.2879
339 1 46.2223 13.4170 15.0000 238.8845
340 1 1.0582 18.3029 15.0000 247.0917
341 1 5.8834 18.2057 15.0000 255.8276
342 1 10.6999 18.1265 15.0000 265.0049
343 1 15.5094 18.0660 15.0000 274.5318
344 1 20.3137 18.0248 15.0000 284.3131
345 1 25.1150 18.0033 15.0000 294.2513
346 1 29.9151 18.0018 15.0000 304.2468
347 1 34.7160 18.0203 15.0000 314.1999
348 1 39.5198 18.0585 15.0000 324.0112
349 1 44.3284 18.1162 15.0000 333.5825
350 1 -0.8564 23.1926 15.0000 342.8183
351 1 3.9675 23.2871 15.0000 351.6262
352 1 8.8016 23.3988 15.0000 359.9183
353 1 13.6478 23.5264 15.0000 367.6118
354 1 18.5074 23.6688 15.0000 374.6297
355 1 23.3820 23.8244 15.0000 380.9019
356 1 28.2727 23.9918 15.0000 386.3657
357 1 33.1807 24.1693 15.0000 390.9667
358 1 38.1068 24.3551 15.0000 394.6587
359 1 43.0519 24.5473 15.0000 397.4049
360 1 -1.9836 29.7441 15.0000 399.1779
361 1 3.0008 29.9434 15.0000 399.9599
362 1 8.0051 30.1432 15.0000 399.7432
363 1 13.0294 30.3417 15.0000 398.5298
364 1 18.0734 30.5367 15.0000 396.3320
365 1 23.1366 30.7264 15.0000 393.1717
366 1 28.2184 30.9088 15.0000 389.0804
367 1 33.3180 31.0821 15.0000 384.0991
368 1 38.4345 31.2446 15.0000 378.2775
369 1 43.5665 31.3947 15.0000 371.6737
370 1 -1.2871 36.5308 15.0000 364.3538
371 1 3.8722 36.6517 15.0000 356.3909
372 1 9.0427 36.7560 15.0000 347.8646
373 1 14.2228 36.8428 15.0000 338.8600
374 1 19.4107 36.9112 15.0000 329.4672
375 1 24.6044 36.9605 15.0000 319.7799
376 1 29.8021 36.9902 15.0000 309.8950
377 1 35.0018 37.0000 15.0000 299.9112
378 1 40.2014 36.9898 15.0000 289.9283
379 1 45.3991 36.9598 15.0000 280.0460
380 1 0.5927 41.9101 15.0000 270.3631
381 1 5.7805 41.8414 15.0000 260.9764
382 1 10.9604 41.7543 15.0000 251.9795
383 1 16.1308 41.6497 15.0000 243.4625
384 1 21.2898 41.5285 15.0000 235.5103
385 1 26.4359 41.3921 15.0000 228.2025
386 1 31.5678 41.2418 15.0000 221.6121
387 1 36.6839 41.0791 15.0000 215.8049
388 1 41.7832 40.9056 15.0000 210.8390
389 1 46.8647 40.7231 15.0000 206.7639
390 1 1.9276 45.5333 15.0000 203.6205
391 1 6.9712 45.3382 15.0000 201.4400
392 1 11.9951 45.1397 15.0000 200.2443
393 1 16.9991 44.9398 15.0000 200.0453
394 1 21.9831 44.7405 15.0000 200.8450
395 1 26.9473 44.5439 15.0000 202.6355
396 1 31.8920 44.3517 15.0000 205.3987
397 1 36.8179 44.1661 15.0000 209.1073
398 1 41.7255 43.9888 15.0000 213.7239
399 1 46.6159 43.8216 15.0000 219.2027
400 1 1.4902 -1.3339 20.0000 225.4887
401 1 6.3496 -1.4760 20.0000 232.5192
402 1 11.1955 -1.6033 20.0000 240.2240
403 1 16.0295 -1.7147 20.0000 248.5260
404 1 20.8532 -1.8089 20.0000 257.3423
405 1 25.6683 -1.8850 20.0000 266.5849
406 1 30.4768 -1.9423 20.0000 276.1613
407 1 35.2805 -1.9802 20.0000 285.9759
408 1 40.0814 -1.9983 20.0000 295.9307
409 1 44.8815 -1.9965 20.0000 305.9261
410 1 -0.3172 3.0253 20.0000 315.8623
411 1 4.4872 3.0669 20.0000 325.6400
412 1 9.2968 3.1277 20.0000 335.1615
413 1 14.1134 3.2073 20.0000 344.3317
414 1 18.9388 3.3047 20.0000 353.0589
415 1 23.7749 3.4192 20.0000 361.2560
416 1 28.6232 3.5494 20.0000 368.8411
417 1 33.4852 3.6941 20.0000 375.7383
418 1 38.3624 3.8518 20.0000 381.8787
419 1 43.2560 4.0210 20.0000 387.2011
420 1 -1.8330 9.2000 20.0000 391.6522
421 1 3.0963 9.3870 20.0000 395.1875
422 1 8.0446 9.5801 20.0000 397.7717
423 1 13.0124 9.7775 20.0000 399.3790
424 1 18.0001 9.9770 20.0000 399.9934
425 1 23.0078 10.1768 20.0000 399.6087
426 1 28.0354 10.3748 20.0000 398.2287
427 1 33.0827 10.5690 20.0000 395.8672
428 1 38.1490 10.7576 20.0000 392.5479
429 1 43.2339 10.9386 20.0000 388.3038
430 1 -1.6635 16.1102 20.0000 383.1775
431 1 3.4556 16.2708 20.0000 377.2200
432 1 8.5902 16.4186 20.0000 370.4911
433 1 13.7388 16.5523 20.0000 363.0578
434 1 18.9001 16.6704 20.0000 354.9944
435 1 24.0724 16.7719 20.0000 346.3816
436 1 29.2539 16.8556 20.0000 337.3053
437 1 34.4429 16.9208 20.0000 327.8563
438 1 39.6374 16.9669 20.0000 318.1289
439 1 44.8356 16.9932 20.0000 308.2204
440 1 0.0354 21.9997 20.0000 298.2298
441 1 5.2349 21.9862 20.0000 288.2569
442 1 10.4320 21.9528 20.0000 278.4013
443 1 15.6248 21.8999 20.0000 268.7615
444 1 20.8113 21.8280 20.0000 259.4338
445 1 25.9898 21.7379 20.0000 250.5115
446 1 31.1583 21.6304 20.0000 242.0836
447 1 36.3153 21.5066 20.0000 234.2344
448 1 41.4592 21.3678 20.0000 227.0423
449 1 46.5884 21.2153 20.0000 220.5792
450 1 1.7018 26.0506 20.0000 214.9096
451 1 6.7982 25.8755 20.0000 210.0903
452 1 11.8766 25.6916 20.0000 206.1693
453 1 16.9363 25.5008 20.0000 203.1858
454 1 21.9766 25.3050 20.0000 201.1696
455 1 26.9972 25.1061 20.0000 200.1409
456 1 31.9978 24.9062 20.0000 200.1100
457 1 36.9785 24.7072 20.0000 201.0771
458 1 41.9393 24.5112 20.0000 203.0327
459 1 46.8809 24.3200 20.0000 205.9571
460 1 1.8036 29.1356 20.0000 209.8212
461 1 6.7083 28.9599 20.0000 214.5863
462 1 11.5959 28.7946 20.0000 220.2048
463 1 16.4676 28.6413 20.0000 226.6206
464 1 21.3246 28.5015 20.0000 233.7696
465 1 26.1684 28.3768 20.0000 241.5803
466 1 31.0005 28.2682 20.0000 249.9748
467 1 35.8226 28.1770 20.0000 258.8691
468 1 40.6365 28.1040 20.0000 268.1743
469 1 45.4440 28.0499 20.0000 277.7976
470 1 0.2471 33.0153 20.0000 287.6427
471 1 5.0478 33.0006 20.0000 297.6112
472 1 9.8479 33.0058 20.0000 307.6037
473 1 14.6496 33.0309 20.0000 317.5201
474 1 19.4548 33.0758 20.0000 327.2615
475 1 24.2654 33.1398 20.0000 336.7305
476 1 29.0833 33.2224 20.0000 345.8325
477 1 33.9105 33.3228 20.0000 354.4766
478 1 38.7485 33.4400 20.0000 362.5764
479 1 43.5990 33.5727 20.0000 370.0509
480 1 -1.5365 38.7197 20.0000 376.8255
481 1 3.3434 38.8795 20.0000 382.8324
482 1 8.2398 39.0505 20.0000 388.0118
483 1 13.1538 39.2310 20.0000 392.3117
484 1 18.0862 39.4191 20.0000 395.6893
485 1 23.0378 39.6131 20.0000 398.1108
486 1 28.0090 39.8109 20.0000 399.5521
487 1 33.0000 40.0106 20.0000 399.9986
488 1 38.0111 40.2102 20.0000 399.4460
489 1 43.0420 40.4077 20.0000 397.8997
490 1 -1.9075 45.6012 20.0000 395.3753
491 1 3.1620 45.7886 20.0000 391.8979
492 1 8.2500 45.9682 20.0000 387.5023
493 1 13.3554 46.1380 20.0000 382.2324
494 1 18.4772 46.2965 20.0000 376.1408
495 1 23.6142 46.4421 20.0000 369.2885
496 1 28.7651 46.5732 20.0000 361.7439
497 1 33.9284 46.6887 20.0000 353.5823
498 1 39.1023 46.7872 20.0000 344.8854
499 1 44.2852 46.8679 20.0000 335.7400
500 1 -0.5247 1.9299 25.0000 326.2375
501 1 4.6705 1.9727 25.0000 316.4728
502 1 9.8691 1.9957 25.0000 306.5436
503 1 15.0690 1.9988 25.0000 296.5489
504 1 20.2682 1.9819 25.0000 286.5888
505 1 25.4647 1.9453 25.0000 276.7626
506 1 30.6566 1.8891 25.0000 267.1687
507 1 35.8419 1.8141 25.0000 257.9027
508 1 41.0189 1.7210 25.0000 249.0574
509 1 46.1856 1.6107 25.0000 240.7211
510 1 1.3405 6.4843 25.0000 232.9771
511 1 6.4819 6.3431 25.0000 225.9027
512 1 11.6086 6.1884 25.0000 219.5688
513 1 16.7192 6.0219 25.0000 214.0384
514 1 21.8127 5.8451 25.0000 209.3670
515 1 26.8880 5.6600 25.0000 205.6011
516 1 31.9444 5.4682 25.0000 202.7784
517 1 36.9815 5.2717 25.0000 200.9272
518 1 41.9987 5.0725 25.0000 200.0658
519 1 46.9959 4.8726 25.0000 200.2030
520 1 1.9733 9.6740 25.0000 201.3372
521 1 6.9309 9.4787 25.0000 203.4573
522 1 11.8692 9.2885 25.0000 206.5421
523 1 16.7888 9.1054 25.0000 210.5606
524 1 21.6905 8.9313 25.0000 215.4727
525 1 26.5754 8.7679 25.0000 221.2295
526 1 31.4445 8.6168 25.0000 227.7733
527 1 36.2992 8.4795 25.0000 235.0387
528 1 41.1409 8.3574 25.0000 242.9532
529 1 45.9712 8.2517 25.0000 251.4378
530 1 0.7919 13.1634 25.0000 260.4075
531 1 5.6045 13.0936 25.0000 269.7728
532 1 10.4112 13.0427 25.0000 279.4402
533 1 15.2137 13.0115 25.0000 289.3129
534 1 20.0142 13.0001 25.0000 299.2925
535 1 24.8144 13.0086 25.0000 309.2791
536 1 29.6165 13.0371 25.0000 319.1730
537 1 34.4225 13.0852 25.0000 328.8754
538 1 39.2342 13.1524 25.0000 338.2892
539 1 44.0536 13.2381 25.0000 347.3205
540 1 -1.1176 18.3414 25.0000 355.8789
541 1 3.7224 18.4612 25.0000 363.8790
542 1 8.5752 18.5965 25.0000 371.2409
543 1 13.4422 18.7457 25.0000 377.8909
544 1 18.3247 18.9075 25.0000 383.7627
545 1 23.2240 19.0802 25.0000 388.7976
546 1 28.1411 19.2621 25.0000 392.9452
547 1 33.0767 19.4514 25.0000 396.1642
548 1 38.0316 19.6461 25.0000 398.4223
549 1 43.0061 19.8444 25.0000 399.6970
550 1 -1.9995 25.0443 25.0000 399.9755
551 1 3.0149 25.2437 25.0000 399.2552
552 1 8.0491 25.4406 25.0000 397.5431
553 1 13.1029 25.6332 25.0000 394.8564
554 1 18.1756 25.8194 25.0000 391.2219
555 1 23.2665 25.9975 25.0000 386.6760
556 1 28.3747 26.1655 25.0000 381.2640
557 1 33.4992 26.3220 25.0000 375.0400
558 1 38.6387 26.4652 25.0000 368.0663
559 1 43.7917 26.5938 25.0000 360.4125
560 1 -1.0431 31.7064 25.0000 352.1551
561 1 4.1325 31.8021 25.0000 343.3766
562 1 9.3167 31.8797 25.0000 334.1646
563 1 14.5078 31.9385 25.0000 324.6113
564 1 19.7038 31.9779 25.0000 314.8121
565 1 24.9027 31.9976 25.0000 304.8649
566 1 30.1026 31.9974 25.0000 294.8690
567 1 35.3015 31.9771 25.0000 284.9245
568 1 40.4974 31.9372 25.0000 275.1305
569 1 45.6883 31.8778 25.0000 265.5851
570 1 0.8723 36.7997 25.0000 256.3835
571 1 6.0476 36.7037 25.0000 247.6177
572 1 11.2125 36.5906 25.0000 239.3754
573 1 16.3652 36.4616 25.0000 231.7387
574 1 21.5043 36.3180 25.0000 224.7841
575 1 26.6284 36.1612 25.0000 218.5810
576 1 31.7362 35.9928 25.0000 213.1915
577 1 36.8266 35.8145 25.0000 208.6693
578 1 41.8988 35.6281 25.0000 205.0596
579 1 46.9520 35.4354 25.0000 202.3986
580 1 1.9857 40.2384 25.0000 200.7127
581 1 6.9996 40.0389 25.0000 200.0189
582 1 11.9935 39.8391 25.0000 200.3241
583 1 16.9675 39.6409 25.0000 201.6252
584 1 21.9218 39.4463 25.0000 203.9093
585 1 26.8569 39.2572 25.0000 207.1534
586 1 31.7735 39.0755 25.0000 211.3253
587 1 36.6723 38.9031 25.0000 216.3831
588 1 41.5545 38.7416 25.0000 222.2764
589 1 46.4211 38.5927 25.0000 228.9463
590 1 1.2735 43.4578 25.0000 236.3262
591 1 6.1132 43.3384 25.0000 244.3423
592 1 10.9417 43.2356 25.0000 252.9144
593 1 15.7609 43.1504 25.0000 261.9571
594 1 20.5724 43.0837 25.0000 271.3798
595 1 25.3782 43.0361 25.0000 281.0885
596 1 30.1803 43.0081 25.0000 290.9862
597 1 34.9805 43.0001 25.0000 300.9739
598 1 39.7810 43.0120 25.0000 310.9519
599 1 44.5836 43.0438 25.0000 320.8205
600 1 -0.6096 -1.9048 30.0000 330.4811
601 1 4.2033 -1.8344 30.0000 339.8370
602 1 9.0241 -1.7457 30.0000 348.7950
603 1 13.8547 -1.6396 30.0000 357.2654
604 1 18.6967 -1.5171 30.0000 365.1636
605 1 23.5518 -1.3794 30.0000 372.4108
606 1 28.4213 -1.2279 30.0000 378.9344
607 1 33.3066 -1.0642 30.0000 384.6693
608 1 38.2088 -0.8898 30.0000 389.5583
609 1 43.1290 -0.7065 30.0000 393.5524
610 1 -1.9322 4.4838 30.0000 396.6118
611 1 3.0259 4.6793 30.0000 398.7058
612 1 8.0037 4.8780 30.0000 399.8137
613 1 13.0015 5.0779 30.0000 399.9242
614 1 18.0193 5.2770 30.0000 399.0363
615 1 23.0568 5.4734 30.0000 397.1589
616 1 28.1138 5.6650 30.0000 394.3107
617 1 33.1896 5.8500 30.0000 390.5201
618 1 38.2835 6.0265 30.0000 385.8252
619 1 43.3945 6.1927 30.0000 380.2726
620 1 -1.4784 11.3470 30.0000 373.9181
621 1 3.6635 11.4879 30.0000 366.8249
622 1 8.8187 11.6139 30.0000 359.0641
623 1 13.9857 11.7237 30.0000 350.7131
624 1 19.1629 11.8164 30.0000 341.8554
625 1 24.3484 11.8909 30.0000 332.5796
626 1 29.5404 11.9465 30.0000 322.9781
627 1 34.7371 11.9826 30.0000 313.1471
628 1 39.9363 11.9990 30.0000 303.1848
629 1 45.1362 11.9954 30.0000 293.1906
630 1 0.3347 16.9718 30.0000 283.2644
631 1 5.5299 16.9285 30.0000 273.5055
632 1 10.7198 16.8660 30.0000 264.0113
633 1 15.9025 16.7848 30.0000 254.8767
634 1 21.0761 16.6858 30.0000 246.1929
635 1 26.2391 16.5699 30.0000 238.0468
636 1 31.3896 16.4384 30.0000 230.5196
637 1 36.5263 16.2925 30.0000 223.6867
638 1 41.6477 16.1337 30.0000 217.6163
639 1 46.7526 15.9635 30.0000 212.3691
640 1 1.8401 20.7837 30.0000 207.9974
641 1 6.9091 20.5961 30.0000 204.5450
642 1 11.9591 20.4025 30.0000 202.0463
643 1 16.9895 20.2049 30.0000 200.5264
644 1 22.0000 20.0053 30.0000 200.0004
645 1 26.9905 19.8056 30.0000 200.4735
646 1 31.9612 19.6079 30.0000 201.9411
647 1 36.9122 19.4140 30.0000 204.3884
648 1 41.8442 19.2260 30.0000 207.7911
649 1 46.7577 19.0458 30.0000 212.1150
650 1 1.6537 23.8751 30.0000 217.3171
651 1 6.5331 23.7156 30.0000 223.3454
652 1 11.3972 23.5690 30.0000 230.1395
653 1 16.2474 23.4366 30.0000 237.6317
654 1 21.0851 23.3199 30.0000 245.7470
655 1 25.9119 23.2200 30.0000 254.4044
656 1 30.7297 23.1378 30.0000 263.5174
657 1 35.5401 23.0743 30.0000 272.9949
658 1 40.3452 23.0300 30.0000 282.7423
659 1 45.1468 23.0054 30.0000 292.6620
660 1 -0.0531 28.0007 30.0000 302.6551
661 1 4.7476 28.0160 30.0000 312.6217
662 1 9.5508 28.0511 30.0000 322.4621
663 1 14.3584 28.1057 30.0000 332.0781
664 1 19.1725 28.1792 30.0000 341.3736
665 1 23.9949 28.2709 30.0000 350.2557
666 1 28.8273 28.3799 30.0000 358.6357
667 1 33.6714 28.5051 30.0000 366.4298
668 1 38.5288 28.6452 30.0000 373.5602
669 1 43.4009 28.7988 30.0000 379.9555
670 1 -1.7110 33.9645 30.0000 385.5520
671 1 3.1941 34.1405 30.0000 390.2937
672 1 8.1173 34.3250 30.0000 394.1332
673 1 13.0594 34.5164 30.0000 397.0321
674 1 18.0208 34.7125 30.0000 398.9615
675 1 23.0020 34.9115 30.0000 399.9021
676 1 28.0031 35.1115 30.0000 399.8446
677 1 33.0242 35.3103 30.0000 398.7894
678 1 38.0651 35.5060 30.0000 396.7472
679 1 43.1252 35.6966 30.0000 393.7383
680 1 -1.7959 40.8803 30.0000 389.7928
681 1 3.3010 41.0552 30.0000 384.9501
682 1 8.4148 41.2195 30.0000 379.2586
683 1 13.5445 41.3717 30.0000 372.7752
684 1 18.6887 41.5101 30.0000 365.5646
685 1 23.8460 41.6335 30.0000 357.6990
686 1 29.0149 41.7405 30.0000 349.2568
687 1 34.1935 41.8302 30.0000 340.3225
688 1 39.3803 41.9016 30.0000 330.9853
689 1 44.5732 41.9539 30.0000 321.3385
690 1 -0.2296 46.9868 30.0000 311.4785
691 1 4.9699 46.9998 30.0000 301.5038
692 1 10.1697 46.9928 30.0000 291.5141
693 1 15.3678 46.9659 30.0000 281.6091
694 1 20.5622 46.9193 30.0000 271.8879
695 1 25.7510 46.8536 30.0000 262.4476
696 1 30.9323 46.7694 30.0000 253.3826
697 1 36.1043 46.6675 30.0000 244.7833
698 1 41.2653 46.5489 30.0000 236.7357
699 1 46.4136 46.4148 30.0000 229.3202
700 1 1.5478 1.2666 35.0000 222.6109
701 1 6.6665 1.1058 35.0000 216.6749
702 1 11.7686 0.9339 35.0000 211.5715
703 1 16.8530 0.7527 35.0000 207.3515
704 1 21.9189 0.5639 35.0000 204.0573
705 1 26.9656 0.3695 35.0000 201.7218
706 1 31.9926 0.1715 35.0000 200.3682
707 1 36.9998 -0.0283 35.0000 200.0100
708 1 41.9870 -0.2278 35.0000 200.6510
709 1 46.9543 -0.4251 35.0000 202.2846
710 1 1.9021 4.3820 35.0000 204.8945
711 1 6.8309 4.1951 35.0000 208.4547
712 1 11.7414 4.0164 35.0000 212.9296
713 1 16.6345 3.8474 35.0000 218.2745
714 1 21.5113 3.6900 35.0000 224.4360
715 1 26.3730 3.5457 35.0000 231.3524
716 1 31.2209 3.4159 35.0000 238.9548
717 1 36.0567 3.3019 35.0000 247.1671
718 1 40.8819 3.2049 35.0000 255.9073
719 1 45.6982 3.1258 35.0000 265.0881
720 1 0.5076 8.0655 35.0000 274.6177
721 1 5.3120 8.0245 35.0000 284.4009
722 1 10.1132 8.0032 35.0000 294.3399
723 1 14.9133 8.0019 35.0000 304.3355
724 1 19.7142 8.0205 35.0000 314.2878
725 1 24.5181 8.0589 35.0000 324.0974
726 1 29.3267 8.1167 35.0000 333.6661
727 1 34.1420 8.1934 35.0000 342.8985
728 1 38.9660 8.2881 35.0000 351.7023
729 1 43.8002 8.3998 35.0000 359.9894
730 1 -1.3535 13.5276 35.0000 367.6772
731 1 3.5062 13.6701 35.0000 374.6888
732 1 8.3809 13.8259 35.0000 380.9540
733 1 13.2718 13.9934 35.0000 386.4105
734 1 18.1799 14.1709 35.0000 391.0035
735 1 23.1063 14.3568 35.0000 394.6873
736 1 28.0515 14.5491 35.0000 397.4250
737 1 33.0162 14.7458 35.0000 399.1892
738 1 38.0008 14.9452 35.0000 399.9624
739 1 43.0053 15.1450 35.0000 399.7368
740 1 -1.9703 20.3434 35.0000 398.5146
741 1 3.0738 20.5384 35.0000 396.3082
742 1 8.1372 20.7280 35.0000 393.1394
743 1 13.2192 20.9104 35.0000 389.0400
744 1 18.3190 21.0836 35.0000 384.0510
745 1 23.4356 21.2460 35.0000 378.2222
746 1 28.5678 21.3960 35.0000 371.6117
747 1 33.7143 21.5320 35.0000 364.2858
748 1 38.8736 21.6527 35.0000 356.3176
749 1 44.0443 21.7569 35.0000 347.7866
750 1 -0.7756 26.8435 35.0000 338.7782
751 1 4.4124 26.9117 35.0000 329.3823
752 1 9.6061 26.9608 35.0000 319.6928
753 1 14.8039 26.9904 35.0000 309.8066
754 1 20.0036 27.0000 35.0000 299.8224
755 1 25.2032 26.9897 35.0000 289.8399
756 1 30.4008 26.9594 35.0000 279.9590
757 1 35.5944 26.9096 35.0000 270.2783
758 1 40.7821 26.8407 35.0000 260.8946
759 1 45.9620 26.7535 35.0000 251.9016
760 1 1.1322 31.6487 35.0000 243.3892
761 1 6.2912 31.5274 35.0000 235.4425
762 1 11.4372 31.3909 35.0000 228.1407
763 1 16.5689 31.2404 35.0000 221.5570
764 1 21.6849 31.0776 35.0000 215.7571
765 1 26.7840 30.9040 35.0000 210.7988
766 1 31.8654 30.7214 35.0000 206.7319
767 1 36.9281 30.5316 35.0000 203.5968
768 1 41.9715 30.3364 35.0000 201.4250
769 1 46.9952 30.1379 35.0000 200.2381
770 1 1.9990 34.9380 35.0000 200.0480
771 1 6.9829 34.7388 35.0000 200.8566
772 1 11.9469 34.5421 35.0000 202.6557
773 1 16.8914 34.3501 35.0000 205.4276
774 1 21.8171 34.1645 35.0000 209.1443
775 1 26.7246 33.9872 35.0000 213.7689
776 1 31.6149 33.8201 35.0000 219.2550
777 1 36.4890 33.6648 35.0000 225.5479
778 1 41.3483 33.5228 35.0000 232.5848
779 1 46.1941 33.3956 35.0000 240.2952
780 1 1.0280 38.2844 35.0000 248.6022
781 1 5.8515 38.1903 35.0000 257.4227