ITEM: TIMESTEP
0
ITEM: NUMBER OF ATOMS
120
ITEM: BOX BOUNDS pp pp pp
0.0 120.000000
0.0 120.000000
0.0 120.000000
ITEM: ATOMS id type x y z strain
1 6 35.1129 60.0356 59.6064 0.0000
2 6 36.3993 60.0569 60.4229 0.0000
3 6 37.7182 60.0113 59.6446 0.0000
4 6 38.9349 59.9830 60.4317 0.0000
5 6 40.2086 59.9990 59.5099 0.0000
6 6 41.4552 59.9838 60.4637 0.0000
7 6 42.7242 59.9781 59.6093 0.0000
8 6 44.0814 59.9828 60.4354 0.0000
9 6 45.3503 59.9740 59.5998 0.0000
10 6 46.6207 60.0013 60.4131 0.0000
11 6 47.8682 60.0945 59.5200 0.0000
12 6 49.0860 60.0345 60.3880 0.0000
13 6 50.4735 60.0556 59.6000 0.0000
14 6 51.7498 59.9815 60.3846 0.0000
15 6 52.9975 60.0311 59.5118 0.0000
16 6 54.1775 59.9998 60.3985 0.0000
17 6 55.5191 59.9666 59.5853 0.0000
18 6 56.7757 60.0018 60.3736 0.0000
19 6 58.0617 59.9923 59.6137 0.0000
20 6 59.4035 59.9367 60.3802 0.0000
21 6 60.5860 59.9971 59.5600 0.0000
22 6 61.8486 60.0457 60.4237 0.0000
23 6 63.2610 59.9638 59.6056 0.0000
24 6 64.4624 59.9734 60.4533 0.0000
25 6 65.7350 60.0388 59.5860 0.0000
26 6 67.0477 60.0501 60.5056 0.0000
27 6 68.3131 60.0680 59.5997 0.0000
28 6 69.6800 60.0532 60.4082 0.0000
29 6 70.9096 60.0903 59.5945 0.0000
30 6 72.1156 59.9707 60.4916 0.0000
31 6 73.4178 59.9509 59.5110 0.0000
32 6 74.7141 60.0150 60.4479 0.0000
33 6 75.9905 60.0004 59.5408 0.0000
34 6 77.2982 60.0092 60.4275 0.0000
35 6 78.5006 60.0211 59.5079 0.0000
36 6 79.8397 59.9833 60.3921 0.0000
37 6 81.0578 59.9829 59.4873 0.0000
38 6 82.3769 60.0120 60.4725 0.0000
39 6 83.6447 59.9447 59.6279 0.0000
40 6 84.8261 59.9567 60.4095 0.0000
41 1 35.1017 58.9646 59.9991 0.0000
42 1 35.0945 61.0326 60.0068 0.0000
43 1 36.3707 58.9209 59.9965 0.0000
44 1 36.3271 61.0649 60.0645 0.0000
45 1 37.7009 58.9952 60.0195 0.0000
46 1 37.6437 61.0004 60.0101 0.0000
47 1 38.9346 58.9388 59.9303 0.0000
48 1 38.9713 61.0257 60.0565 0.0000
49 1 40.2404 58.9281 59.9959 0.0000
50 1 40.2283 61.1092 59.9456 0.0000
51 1 41.5306 59.0216 59.9606 0.0000
52 1 41.4780 61.0207 60.0374 0.0000
53 1 42.7370 58.9639 59.9829 0.0000
54 1 42.7846 61.0907 59.9757 0.0000
55 1 44.0716 58.9392 59.9840 0.0000
56 1 44.1070 61.1209 60.0519 0.0000
57 1 45.2890 59.0068 60.0012 0.0000
58 1 45.3236 61.0301 59.9079 0.0000
59 1 46.6562 59.0058 60.0309 0.0000
60 1 46.6461 61.0339 60.0793 0.0000
61 1 47.8947 58.9343 60.0071 0.0000
62 1 47.8958 60.9996 59.9675 0.0000
63 1 49.0610 59.0101 59.9833 0.0000
64 1 49.1291 60.9614 59.9788 0.0000
65 1 50.4132 58.9263 59.9506 0.0000
66 1 50.3715 61.0623 60.0301 0.0000
67 1 51.7169 58.9472 60.0788 0.0000
68 1 51.7563 61.0338 59.9537 0.0000
69 1 52.9541 58.9964 59.9657 0.0000
70 1 52.9616 60.9068 60.0446 0.0000
71 1 54.3429 58.9914 59.9766 0.0000
72 1 54.2047 61.0227 59.9879 0.0000
73 1 55.4538 58.9657 59.9711 0.0000
74 1 55.5902 60.9813 60.0280 0.0000
75 1 56.8323 58.9631 60.0232 0.0000
76 1 56.8128 60.9947 59.9713 0.0000
77 1 58.1081 58.9293 60.0760 0.0000
78 1 58.1279 61.1035 59.9642 0.0000
79 1 59.4130 58.9467 59.9183 0.0000
80 1 59.3543 61.0151 59.9796 0.0000
81 1 60.6784 58.9313 59.9701 0.0000
82 1 60.6528 61.0632 59.9896 0.0000
83 1 61.9574 59.0264 60.0398 0.0000
84 1 61.9579 61.0729 60.0482 0.0000
85 1 63.2751 58.9459 60.1047 0.0000
86 1 63.1396 61.0486 60.0468 0.0000
87 1 64.3812 59.0217 59.9843 0.0000
88 1 64.4674 61.0480 59.9890 0.0000
89 1 65.7556 59.0449 59.9795 0.0000
90 1 65.6995 61.0386 60.0027 0.0000
91 1 67.0222 58.9676 60.0665 0.0000
92 1 67.0649 60.9952 60.0111 0.0000
93 1 68.3684 58.9054 60.0520 0.0000
94 1 68.3292 61.0386 59.9960 0.0000
95 1 69.5278 58.9524 59.9856 0.0000
96 1 69.6208 61.0733 59.9603 0.0000
97 1 70.8676 58.9761 60.0701 0.0000
98 1 70.8649 60.9840 60.0022 0.0000
99 1 72.0809 59.0062 60.0695 0.0000
100 1 72.1398 61.0579 60.0109 0.0000
101 1 73.4289 59.0098 60.0179 0.0000
102 1 73.3783 61.0785 60.0286 0.0000
103 1 74.6849 58.9704 59.9792 0.0000
104 1 74.6986 61.0166 60.0188 0.0000
105 1 75.8904 58.9632 59.9563 0.0000
106 1 75.9708 60.9675 59.9363 0.0000
107 1 77.2072 59.0184 60.0217 0.0000
108 1 77.3104 61.0747 59.9756 0.0000
109 1 78.5676 58.9748 59.9755 0.0000
110 1 78.5853 61.0820 60.0286 0.0000
111 1 79.7937 58.9458 60.0473 0.0000
112 1 79.7696 61.0369 60.0286 0.0000
113 1 81.1014 58.9749 59.9602 0.0000
114 1 81.1069 60.9709 59.9624 0.0000
115 1 82.4014 58.9285 60.0002 0.0000
116 1 82.3534 61.0771 59.9466 0.0000
117 1 83.6373 58.9303 59.9433 0.0000
118 1 83.6471 60.9885 60.0161 0.0000
119 1 84.8645 58.9423 60.0106 0.0000
120 1 84.9055 61.0372 59.9297 0.0000
ITEM: TIMESTEP
50
ITEM: NUMBER OF ATOMS
120
ITEM: BOX BOUNDS pp pp pp
0.0 120.000000
0.0 120.000000
0.0 120.000000
ITEM: ATOMS id type x y z strain
1 6 34.9362 59.9819 59.6029 0.0030
2 6 36.2411 59.9853 60.4720 0.0030
3 6 37.5356 59.9618 59.5956 0.0030
4 6 38.7886 59.9356 60.3864 0.0030
5 6 40.0603 59.9469 59.5329 0.0030
6 6 41.3807 60.0667 60.4710 0.0030
7 6 42.6089 60.0077 59.5456 0.0030
8 6 43.9053 59.9583 60.4865 0.0030
9 6 45.2294 59.9684 59.5740 0.0030
10 6 46.3985 59.9826 60.4002 0.0030
11 6 47.8104 60.0176 59.5827 0.0030
12 6 48.9487 60.0441 60.3922 0.0030
13 6 50.3607 60.0460 59.5823 0.0030
14 6 51.5682 60.0208 60.4471 0.0030
15 6 52.8148 59.9525 59.5639 0.0030
16 6 54.1178 60.0138 60.3992 0.0030
17 6 55.4831 59.9709 59.6009 0.0031
18 6 56.7095 60.0299 60.3715 0.0032
19 6 57.9452 60.0222 59.5096 0.0037
20 6 59.2550 59.9655 60.3974 0.0044
21 6 60.5558 60.0323 59.5559 0.0048
22 6 61.9091 59.9023 60.4501 0.0044
23 6 63.1448 59.9842 59.6064 0.0037
24 6 64.4362 59.9972 60.3552 0.0032
25 6 65.7275 59.9854 59.5529 0.0031
26 6 67.0033 59.9544 60.4334 0.0030
27 6 68.3150 60.0245 59.5404 0.0030
28 6 69.5238 60.0183 60.4548 0.0030
29 6 70.8506 59.9568 59.5676 0.0030
30 6 72.1537 59.9361 60.4012 0.0030
31 6 73.3734 60.0048 59.5532 0.0030
32 6 74.6179 60.0513 60.4244 0.0030
33 6 75.9063 60.0247 59.5458 0.0030
34 6 77.2075 59.9243 60.4508 0.0030
35 6 78.4828 60.0030 59.6181 0.0030
36 6 79.7311 60.0006 60.4002 0.0030
37 6 81.0475 59.9742 59.5686 0.0030
38 6 82.2561 60.0217 60.5128 0.0030
39 6 83.5116 60.0268 59.5970 0.0030
40 6 84.9173 60.0043 60.4300 0.0030
41 1 34.9645 58.9343 59.9971 0.0030
42 1 34.9669 61.0660 59.9735 0.0030
43 1 36.3072 58.9956 59.9486 0.0030
44 1 36.2344 60.9926 60.0108 0.0030
45 1 37.5083 58.9168 60.0610 0.0030
46 1 37.5290 61.0446 60.0183 0.0030
47 1 38.8151 58.9631 60.0121 0.0030
48 1 38.8512 61.0038 59.9729 0.0030
49 1 40.0680 58.9163 60.0222 0.0030
50 1 40.1177 61.0341 60.0389 0.0030
51 1 41.4009 58.9378 60.0787 0.0030
52 1 41.3817 61.0708 60.0271 0.0030
53 1 42.6181 58.8781 59.9128 0.0030
54 1 42.6652 61.0347 59.9866 0.0030
55 1 43.9723 59.0156 59.9453 0.0030
56 1 43.9153 60.9501 59.9647 0.0030
57 1 45.1672 58.9262 60.0206 0.0030
58 1 45.2619 61.0444 60.0299 0.0030
59 1 46.4651 58.9050 59.9881 0.0030
60 1 46.4900 61.0593 60.0419 0.0030
61 1 47.7476 58.9090 60.0383 0.0030
62 1 47.7661 61.0384 59.9577 0.0030
63 1 49.0260 58.9208 60.0028 0.0030
64 1 49.1478 61.0532 59.9927 0.0030
65 1 50.3174 58.9717 59.9922 0.0030
66 1 50.3142 61.0174 59.9635 0.0030
67 1 51.5980 58.9558 59.9547 0.0030
68 1 51.6228 61.0976 60.0306 0.0030
69 1 52.8343 58.9470 60.0282 0.0030
70 1 52.8593 60.9773 60.0351 0.0030
71 1 54.1865 58.9414 60.0176 0.0030
72 1 54.1154 61.0860 60.0520 0.0030
73 1 55.4630 58.9722 60.0140 0.0030
74 1 55.4308 61.0839 59.9977 0.0030
75 1 56.7571 58.9469 59.9478 0.0030
76 1 56.7542 60.9916 60.0489 0.0030
77 1 57.9966 58.9089 60.0255 0.0030
78 1 58.0039 61.0188 60.0204 0.0030
79 1 59.2837 58.9369 59.9800 0.0030
80 1 59.2255 61.1363 59.9587 0.0030
81 1 60.5924 59.0116 59.9595 0.0030
82 1 60.5554 61.0575 60.0291 0.0030
83 1 61.7626 58.9943 59.9959 0.0030
84 1 61.7985 61.0439 60.0946 0.0030
85 1 63.1184 59.0105 60.0294 0.0030
86 1 63.1507 61.0109 60.0235 0.0030
87 1 64.4568 58.9411 60.0093 0.0030
88 1 64.4206 61.0249 60.0068 0.0030
89 1 65.6928 58.9512 59.9299 0.0030
90 1 65.6121 60.9830 60.0082 0.0030
91 1 66.9972 58.9853 59.9919 0.0030
92 1 66.9480 60.9738 59.9166 0.0030
93 1 68.2506 59.0046 60.0541 0.0030
94 1 68.2257 61.0069 59.9728 0.0030
95 1 69.5749 58.9396 59.9697 0.0030
96 1 69.5665 61.1040 59.9162 0.0030
97 1 70.8286 58.9536 60.0337 0.0030
98 1 70.8739 61.0951 59.9967 0.0030
99 1 72.1243 58.9762 59.9568 0.0030
100 1 72.0585 61.0894 60.0722 0.0030
101 1 73.3813 58.9860 60.0470 0.0030
102 1 73.3479 61.0639 59.9933 0.0030
103 1 74.5941 58.9855 59.9840 0.0030
104 1 74.6941 61.0776 59.9655 0.0030
105 1 75.9345 58.9184 59.9958 0.0030
106 1 75.9808 61.0796 59.9853 0.0030
107 1 77.2062 58.9206 59.9751 0.0030
108 1 77.1978 61.0063 60.0332 0.0030
109 1 78.4700 59.0044 60.0215 0.0030
110 1 78.5361 60.9665 59.9806 0.0030
111 1 79.7800 59.0072 59.9794 0.0030
112 1 79.7111 61.0054 59.9692 0.0030
113 1 81.1004 58.9461 60.0204 0.0030
114 1 81.0024 61.0414 60.0239 0.0030
115 1 82.2955 58.9840 60.0201 0.0030
116 1 82.3263 61.0319 60.0078 0.0030
117 1 83.6320 59.0091 60.0345 0.0030
118 1 83.7041 61.0063 59.9566 0.0030
119 1 85.0638 58.9621 59.9487 0.0030
120 1 84.9173 61.0191 60.0492 0.0030
ITEM: TIMESTEP
100
ITEM: NUMBER OF ATOMS
120
ITEM: BOX BOUNDS pp pp pp
0.0 120.000000
0.0 120.000000
0.0 120.000000
ITEM: ATOMS id type x y z strain
1 6 35.0033 60.0938 59.5702 0.0061
2 6 36.2397 59.9317 60.4686 0.0061
3 6 37.4892 59.9863 59.5096 0.0061
4 6 38.7856 60.0055 60.3571 0.0061
5 6 40.0348 60.0334 59.6096 0.0061
6 6 41.3570 59.9655 60.4076 0.0061
7 6 42.6288 59.9799 59.5367 0.0061
8 6 43.9130 60.0300 60.4403 0.0061
9 6 45.2822 60.0732 59.5750 0.0061
10 6 46.4481 60.0664 60.4876 0.0061
11 6 47.8051 59.9999 59.6075 0.0061
12 6 49.0329 60.0160 60.3631 0.0061
13 6 50.3551 59.9752 59.6352 0.0061
14 6 51.6105 60.0301 60.4480 0.0061
15 6 52.8453 59.9927 59.5871 0.0061
16 6 54.1909 59.9497 60.4804 0.0061
17 6 55.4191 60.0063 59.5554 0.0061
18 6 56.8481 60.0157 60.4300 0.0064
19 6 58.0340 59.9592 59.5320 0.0074
20 6 59.3426 60.0204 60.4573 0.0089
21 6 60.5671 60.0265 59.6182 0.0097
22 6 61.8808 59.9260 60.4615 0.0089
23 6 63.1855 60.0449 59.6269 0.0074
24 6 64.4712 60.0163 60.4798 0.0064
25 6 65.7342 59.9512 59.5980 0.0061
26 6 67.0522 59.9345 60.4163 0.0061
27 6 68.3309 60.0375 59.5652 0.0061
28 6 69.5539 59.9688 60.4895 0.0061
29 6 70.9068 59.9966 59.5316 0.0061
30 6 72.1486 59.9455 60.3816 0.0061
31 6 73.4928 59.9731 59.5262 0.0061
32 6 74.7349 60.0076 60.4116 0.0061
33 6 75.9910 59.9387 59.5577 0.0061
34 6 77.2874 60.0050 60.4646 0.0061
35 6 78.5430 60.0128 59.6202 0.0061
36 6 79.8942 60.0054 60.4288 0.0061
37 6 81.1947 60.0248 59.6237 0.0061
38 6 82.4832 59.9573 60.4361 0.0061
39 6 83.7366 59.9752 59.5919 0.0061
40 6 85.1018 59.9783 60.4365 0.0061
41 1 34.9188 58.9812 60.0226 0.0061
42 1 34.8982 61.0348 60.0173 0.0061
43 1 36.1419 58.9565 60.0400 0.0061
44 1 36.2123 61.0204 59.9774 0.0061
45 1 37.4614 58.9714 60.0242 0.0061
46 1 37.4877 61.0465 60.0429 0.0061
47 1 38.8172 58.9558 60.0197 0.0061
48 1 38.7880 61.0653 59.9670 0.0061
49 1 40.0538 59.0205 60.0218 0.0061
50 1 40.0900 61.0077 60.0531 0.0061
51 1 41.3634 58.9865 59.9942 0.0061
52 1 41.3630 61.1318 60.0053 0.0061
53 1 42.6192 59.0019 59.9587 0.0061
54 1 42.5956 61.0088 59.9904 0.0061
55 1 43.8800 58.9668 59.9946 0.0061
56 1 43.9178 61.0598 59.9988 0.0061
57 1 45.1784 58.9828 60.0095 0.0061
58 1 45.2524 61.0778 59.9747 0.0061
59 1 46.4945 58.9411 59.9032 0.0061
60 1 46.4502 61.0297 59.9903 0.0061
61 1 47.7451 59.0002 60.0216 0.0061
62 1 47.7172 61.0450 59.9957 0.0061
63 1 49.0539 58.9622 59.9603 0.0061
64 1 49.0099 60.9338 59.9588 0.0061
65 1 50.3597 58.9897 59.9369 0.0061
66 1 50.3430 61.0297 59.9702 0.0061
67 1 51.6637 58.8102 59.9657 0.0061
68 1 51.6046 61.0336 59.9854 0.0061
69 1 52.8927 58.9391 60.0222 0.0061
70 1 52.7917 60.9927 60.0119 0.0061
71 1 54.2118 58.9722 59.9954 0.0061
72 1 54.1923 61.0636 59.9765 0.0061
73 1 55.5373 58.9144 60.0250 0.0061
74 1 55.4903 61.0512 59.9894 0.0061
75 1 56.7492 58.9863 59.9746 0.0061
76 1 56.7543 61.0109 59.9919 0.0061
77 1 58.0315 58.9795 60.0022 0.0061
78 1 58.0266 61.0488 59.9606 0.0061
79 1 59.2615 58.9689 60.0156 0.0061
80 1 59.3365 61.0945 60.0432 0.0061
81 1 60.6428 58.8887 59.9718 0.0061
82 1 60.5657 61.0409 59.9892 0.0061
83 1 61.8840 59.0121 60.0330 0.0061
84 1 61.9183 61.0438 60.0304 0.0061
85 1 63.2070 58.9284 60.0073 0.0061
86 1 63.2490 61.0206 59.9930 0.0061
87 1 64.4423 58.9476 60.0468 0.0061
88 1 64.4780 60.9896 60.0064 0.0061
89 1 65.7973 58.9121 60.0286 0.0061
90 1 65.7677 61.0731 60.0530 0.0061
91 1 66.9860 58.9917 60.0230 0.0061
92 1 67.0412 60.9957 60.0782 0.0061
93 1 68.3220 58.9859 59.9371 0.0061
94 1 68.3836 60.9872 60.0008 0.0061
95 1 69.5952 58.9709 59.9325 0.0061
96 1 69.6455 61.0633 59.9331 0.0061
97 1 70.9217 58.9171 59.9797 0.0061
98 1 70.8091 61.0135 60.0675 0.0061
99 1 72.1317 58.9882 59.9198 0.0061
100 1 72.1963 61.0909 59.9650 0.0061
101 1 73.5079 58.9658 59.9730 0.0061
102 1 73.4669 61.0227 59.9826 0.0061
103 1 74.7359 58.9677 60.0545 0.0061
104 1 74.6901 61.0282 59.9973 0.0061
105 1 76.0745 58.9210 60.0290 0.0061
106 1 76.0111 60.9826 60.0826 0.0061
107 1 77.2391 58.8901 59.9784 0.0061
108 1 77.3358 61.0369 59.9484 0.0061
109 1 78.5978 58.9640 59.9909 0.0061
110 1 78.6121 61.0327 60.0222 0.0061
111 1 79.9193 58.9592 59.9692 0.0061
112 1 79.8908 61.0319 59.9658 0.0061
113 1 81.1200 58.9723 60.0066 0.0061
114 1 81.0913 61.0537 60.0076 0.0061
115 1 82.4908 58.9860 59.9908 0.0061
116 1 82.4312 60.9813 60.0344 0.0061
117 1 83.7131 59.0042 59.9561 0.0061
118 1 83.7646 61.0228 59.9866 0.0061
119 1 85.0113 58.9817 59.9615 0.0061
120 1 84.9755 61.0128 59.9328 0.0061
ITEM: TIMESTEP
150
ITEM: NUMBER OF ATOMS
120
ITEM: BOX BOUNDS pp pp pp
0.0 120.000000
0.0 120.000000
0.0 120.000000
ITEM: ATOMS id type x y z strain
1 6 34.8863 60.0548 59.5953 0.0091
2 6 36.1795 59.9753 60.4337 0.0091
3 6 37.4703 60.0137 59.6365 0.0091
4 6 38.7242 60.0063 60.3831 0.0091
5 6 40.0469 59.9980 59.5388 0.0091
6 6 41.3482 59.9537 60.4036 0.0091
7 6 42.5881 60.0265 59.5108 0.0091
8 6 43.8002 59.9743 60.4342 0.0091
9 6 45.1212 59.9682 59.5807 0.0091
10 6 46.4781 59.9714 60.4266 0.0091
11 6 47.7091 60.0638 59.5904 0.0091
12 6 49.0667 60.0771 60.4245 0.0091
13 6 50.2578 59.9619 59.5851 0.0091
14 6 51.6354 60.0144 60.4619 0.0091
15 6 52.9475 59.9931 59.5750 0.0091
16 6 54.1796 60.0357 60.4502 0.0091
17 6 55.5102 59.9710 59.5424 0.0092
18 6 56.7331 60.0440 60.4058 0.0097
19 6 58.0471 60.0051 59.6089 0.0111
20 6 59.2698 60.0240 60.4011 0.0133
21 6 60.5978 59.9879 59.4952 0.0145
22 6 61.9923 59.9678 60.4442 0.0133
23 6 63.1450 60.0052 59.5454 0.0111
24 6 64.4781 59.9834 60.4777 0.0097
25 6 65.7787 59.9975 59.5702 0.0092
26 6 67.0837 59.9193 60.4294 0.0091
27 6 68.3143 59.9240 59.5427 0.0091
28 6 69.6566 59.9946 60.4692 0.0091
29 6 70.9330 60.0892 59.5476 0.0091
30 6 72.2626 60.0064 60.4274 0.0091
31 6 73.5433 59.9734 59.5940 0.0091
32 6 74.7686 60.0467 60.4454 0.0091
33 6 76.1524 60.0116 59.5995 0.0091
34 6 77.3699 60.0107 60.4923 0.0091
35 6 78.6139 60.0146 59.5764 0.0091
36 6 79.9481 59.9653 60.5262 0.0091
37 6 81.2394 60.0246 59.5561 0.0091
38 6 82.6233 60.0227 60.4328 0.0091
39 6 83.8039 59.9872 59.5236 0.0091
40 6 85.1137 59.9502 60.3872 0.0091
41 1 34.9151 58.9574 60.0158 0.0091
42 1 34.9564 61.0500 59.9926 0.0091
43 1 36.1184 58.9298 59.9439 0.0091
44 1 36.1756 61.0109 60.0287 0.0091
45 1 37.4933 58.9839 60.0180 0.0091
46 1 37.4273 61.0301 59.9654 0.0091
47 1 38.6990 58.9826 59.9944 0.0091
48 1 38.7285 61.0555 59.8734 0.0091
49 1 40.0497 58.9675 60.0665 0.0091
50 1 39.9882 61.0275 60.0055 0.0091
51 1 41.3446 58.9115 59.9907 0.0091
52 1 41.3510 61.0259 59.9862 0.0091
53 1 42.5638 58.9824 60.0662 0.0091
54 1 42.5686 61.0451 59.9816 0.0091
55 1 43.8570 58.9173 59.9916 0.0091
56 1 43.9245 61.1137 59.9788 0.0091
57 1 45.1755 58.9475 59.9047 0.0091
58 1 45.1160 61.0356 60.0202 0.0091
59 1 46.4868 59.0167 59.9437 0.0091
60 1 46.4497 61.0907 59.8923 0.0091
61 1 47.7469 58.9788 60.0160 0.0091
62 1 47.7356 60.9972 60.0512 0.0091
63 1 49.0847 58.9737 60.0271 0.0091
64 1 49.0073 61.0029 60.0607 0.0091
65 1 50.3945 58.9232 60.0062 0.0091
66 1 50.3399 61.0166 60.0457 0.0091
67 1 51.5536 58.9755 60.0003 0.0091
68 1 51.6114 61.0938 59.9716 0.0091
69 1 52.9213 58.9683 60.1012 0.0091
70 1 52.9188 60.9990 60.0163 0.0091
71 1 54.2136 58.9140 59.9810 0.0091
72 1 54.2094 61.0068 59.9882 0.0091
73 1 55.4550 58.9183 59.9768 0.0091
74 1 55.5017 61.0926 60.0056 0.0091
75 1 56.8162 59.0339 60.0269 0.0091
76 1 56.7573 61.0105 59.9572 0.0091
77 1 58.0860 59.0150 60.0167 0.0091
78 1 58.0897 61.0563 60.0114 0.0091
79 1 59.2955 58.9573 59.9629 0.0091
80 1 59.4154 60.9869 59.9271 0.0091
81 1 60.5788 58.9729 60.0961 0.0091
82 1 60.6132 61.0550 59.9622 0.0091
83 1 61.9100 58.9858 60.0469 0.0091
84 1 61.9217 61.0459 60.0159 0.0091
85 1 63.1468 58.9822 60.0745 0.0091
86 1 63.2518 61.1062 60.0675 0.0091
87 1 64.5485 58.9646 59.9849 0.0091
88 1 64.5415 60.9586 59.9571 0.0091
89 1 65.8274 58.8893 60.0201 0.0091
90 1 65.7123 61.0019 60.0500 0.0091
91 1 67.0558 58.9718 59.9966 0.0091
92 1 67.0784 61.0241 60.0212 0.0091
93 1 68.3865 58.9416 60.0029 0.0091
94 1 68.3283 61.0752 60.0203 0.0091
95 1 69.6066 58.8695 59.9755 0.0091
96 1 69.6201 60.9709 59.9870 0.0091
97 1 70.8714 58.9360 59.9972 0.0091
98 1 70.9478 61.0491 59.9241 0.0091
99 1 72.2817 58.9133 60.0167 0.0091
100 1 72.2426 61.0573 59.9854 0.0091
101 1 73.5255 58.9968 60.0179 0.0091
102 1 73.4879 61.0458 59.9430 0.0091
103 1 74.8511 58.9776 59.8732 0.0091
104 1 74.7924 61.0376 60.0523 0.0091
105 1 76.0296 58.9168 59.9412 0.0091
106 1 76.1931 61.0795 59.9991 0.0091
107 1 77.3705 59.0126 59.9501 0.0091
108 1 77.4212 60.9761 59.9650 0.0091
109 1 78.6675 58.9374 59.9721 0.0091
110 1 78.6654 61.0465 60.0845 0.0091
111 1 79.8939 58.9569 60.0092 0.0091
112 1 79.8602 61.0641 59.9945 0.0091
113 1 81.1047 58.9500 60.0349 0.0091
114 1 81.2722 61.1062 60.0121 0.0091
115 1 82.5398 58.9785 60.0452 0.0091
116 1 82.5071 61.0460 59.9123 0.0091
117 1 83.8188 58.9463 60.0644 0.0091
118 1 83.7586 61.0819 60.0736 0.0091
119 1 85.0372 58.9291 59.9762 0.0091
120 1 85.0788 60.9577 59.9959 0.0091
ITEM: TIMESTEP
200
ITEM: NUMBER OF ATOMS
120
ITEM: BOX BOUNDS pp pp pp
0.0 120.000000
0.0 120.000000
0.0 120.000000
ITEM: ATOMS id type x y z strain
1 6 34.7900 59.9707 59.5773 0.0121
2 6 36.0090 60.0174 60.4448 0.0121
3 6 37.3914 59.9964 59.6561 0.0121
4 6 38.6600 60.0589 60.3633 0.0121
5 6 39.9599 59.9881 59.5776 0.0121
6 6 41.2916 60.0189 60.4319 0.0121
7 6 42.5796 59.9018 59.5700 0.0121
8 6 43.7886 59.9424 60.5310 0.0121
9 6 45.0897 60.0287 59.5622 0.0121
10 6 46.3863 59.9591 60.4188 0.0121
11 6 47.7724 60.0249 59.6021 0.0121
12 6 48.9764 59.9583 60.4541 0.0121
13 6 50.2805 59.9912 59.5902 0.0121
14 6 51.5742 59.8939 60.3970 0.0121
15 6 52.8164 59.9501 59.6022 0.0121
16 6 54.2469 59.9399 60.4023 0.0121
17 6 55.4558 59.9534 59.5367 0.0123
18 6 56.8367 59.9720 60.4673 0.0129
19 6 58.0855 59.9940 59.5806 0.0148
20 6 59.4016 60.0162 60.4525 0.0178
21 6 60.6161 60.0184 59.6075 0.0194
22 6 61.9129 59.9245 60.4627 0.0178
23 6 63.1815 60.0080 59.5272 0.0148
24 6 64.5147 60.0438 60.4617 0.0129
25 6 65.8858 59.9938 59.5574 0.0123
26 6 67.1580 59.9993 60.4600 0.0121
27 6 68.4003 59.9902 59.5363 0.0121
28 6 69.6316 60.0539 60.3787 0.0121
29 6 70.9846 60.0276 59.5686 0.0121
30 6 72.2834 60.0292 60.4417 0.0121
31 6 73.5418 59.9773 59.6018 0.0121
32 6 74.8228 60.0162 60.4619 0.0121
33 6 76.2088 59.9853 59.5361 0.0121
34 6 77.4674 59.9911 60.3976 0.0121
35 6 78.7302 60.0567 59.6549 0.0121
36 6 80.0053 60.0464 60.4075 0.0121
37 6 81.2889 59.9841 59.6200 0.0121
38 6 82.5871 60.0156 60.4493 0.0121
39 6 83.9319 59.9555 59.5814 0.0121
40 6 85.1882 59.9764 60.3182 0.0121
41 1 34.7996 59.0074 59.9291 0.0121
42 1 34.8343 61.0264 59.9708 0.0121
43 1 36.1014 58.9826 60.0116 0.0121
44 1 36.1250 61.0535 60.0643 0.0121
45 1 37.3722 58.9670 59.9972 0.0121
46 1 37.4015 61.0530 59.8748 0.0121
47 1 38.5952 58.9842 59.9895 0.0121
48 1 38.7227 61.0488 59.9789 0.0121
49 1 39.9702 58.9355 59.9754 0.0121
50 1 39.9475 61.0646 59.9830 0.0121
51 1 41.2886 58.9314 59.9014 0.0121
52 1 41.2523 61.0516 60.0016 0.0121
53 1 42.5845 58.8459 60.0027 0.0121
54 1 42.5766 60.9662 60.0109 0.0121
55 1 43.8825 59.0244 60.0254 0.0121
56 1 43.8300 61.1119 60.0409 0.0121
57 1 45.1418 58.9562 59.9828 0.0121
58 1 45.1292 60.9835 60.0073 0.0121
59 1 46.4383 58.9917 59.9605 0.0121
60 1 46.4380 60.9645 60.0248 0.0121
61 1 47.6671 58.8983 59.9893 0.0121
62 1 47.7403 61.0500 59.9888 0.0121
63 1 49.0206 58.9503 60.0595 0.0121
64 1 48.9938 61.0771 59.9249 0.0121
65 1 50.3347 58.9643 60.0820 0.0121
66 1 50.3578 61.0574 60.0053 0.0121
67 1 51.6208 58.9266 60.0206 0.0121
68 1 51.5802 60.9637 59.9822 0.0121
69 1 52.9307 58.9618 60.0002 0.0121
70 1 52.9098 61.0235 60.0021 0.0121
71 1 54.1827 58.9804 60.0169 0.0121
72 1 54.1823 61.0182 59.9646 0.0121
73 1 55.5307 58.9688 59.9849 0.0121
74 1 55.4907 61.0752 59.9892 0.0121
75 1 56.8035 58.9673 59.9688 0.0121
76 1 56.7968 61.0202 59.9804 0.0121
77 1 58.0563 58.9407 60.0234 0.0121
78 1 58.0073 61.0837 59.9556 0.0121
79 1 59.3125 58.9856 59.9756 0.0121
80 1 59.3721 61.0748 60.0285 0.0121
81 1 60.6606 59.0514 60.0102 0.0121
82 1 60.7150 61.0543 60.0160 0.0121
83 1 62.0333 58.9718 60.0277 0.0121
84 1 61.9459 61.0028 60.0028 0.0121
85 1 63.1716 59.0436 59.9430 0.0121
86 1 63.2125 61.0229 60.0323 0.0121
87 1 64.5463 58.9782 60.0760 0.0121
88 1 64.5860 61.0630 59.9475 0.0121
89 1 65.8576 58.9365 60.0058 0.0121
90 1 65.8370 61.0627 59.9949 0.0121
91 1 67.1462 58.9335 59.9974 0.0121
92 1 67.0808 61.0459 60.0102 0.0121
93 1 68.4167 58.9650 60.0054 0.0121
94 1 68.3717 61.0379 59.9958 0.0121
95 1 69.7355 58.9369 60.0142 0.0121
96 1 69.7510 61.0407 60.0226 0.0121
97 1 70.9159 58.9444 59.9776 0.0121
98 1 71.0037 60.9594 59.9812 0.0121
99 1 72.2802 58.9833 60.0248 0.0121
100 1 72.3535 60.9866 59.9870 0.0121
101 1 73.6223 58.9360 60.0344 0.0121
102 1 73.5182 61.0292 59.9463 0.0121
103 1 74.8387 58.9678 60.0105 0.0121
104 1 74.7933 61.0440 60.0003 0.0121
105 1 76.1217 58.9615 60.0223 0.0121
106 1 76.1879 61.0090 59.9708 0.0121
107 1 77.4303 58.9490 60.0354 0.0121
108 1 77.3793 61.0376 60.0179 0.0121
109 1 78.7124 59.0073 59.9363 0.0121
110 1 78.7693 61.0621 60.0116 0.0121
111 1 79.9700 58.9598 59.9561 0.0121
112 1 79.9906 61.0447 59.9791 0.0121
113 1 81.3730 58.8876 60.0381 0.0121
114 1 81.3186 61.0286 60.0600 0.0121
115 1 82.5679 58.9472 59.9330 0.0121
116 1 82.5909 61.0521 60.0191 0.0121
117 1 83.8994 58.9779 59.9880 0.0121
118 1 83.9604 61.0264 60.0180 0.0121
119 1 85.1776 58.9741 60.0308 0.0121
120 1 85.2100 61.0310 59.9953 0.0121
ITEM: TIMESTEP
250
ITEM: NUMBER OF ATOMS
120
ITEM: BOX BOUNDS pp pp pp
0.0 120.000000
0.0 120.000000
0.0 120.000000
ITEM: ATOMS id type x y z strain
1 6 34.7532 59.9604 59.6281 0.0152
2 6 36.0113 59.9907 60.4348 0.0152
3 6 37.3491 60.0249 59.6099 0.0152
4 6 38.5405 59.9988 60.4124 0.0152
5 6 39.9802 60.1010 59.5654 0.0152
6 6 41.2444 59.9455 60.3597 0.0152
7 6 42.5334 60.0392 59.5384 0.0152
8 6 43.8664 59.9812 60.4617 0.0152
9 6 45.0245 59.9732 59.5994 0.0152
10 6 46.4122 60.0354 60.3951 0.0152
11 6 47.6764 60.0187 59.5470 0.0152
12 6 48.8670 59.9880 60.4552 0.0152
13 6 50.2571 60.0280 59.6226 0.0152
14 6 51.5248 60.0193 60.4233 0.0152
15 6 52.8574 60.0083 59.5825 0.0152
16 6 54.1640 59.9970 60.4200 0.0152
17 6 55.5047 59.9767 59.5022 0.0153
18 6 56.7583 59.9666 60.4500 0.0161
19 6 58.0268 60.1359 59.5327 0.0185
20 6 59.2617 60.0114 60.4349 0.0222
21 6 60.7345 59.9237 59.6056 0.0242
22 6 62.0160 59.9452 60.4373 0.0222
23 6 63.2111 60.0421 59.5341 0.0185
24 6 64.4855 60.0477 60.3889 0.0161
25 6 65.8039 60.0790 59.5812 0.0153
26 6 67.1139 60.0174 60.4580 0.0152
27 6 68.4137 59.9699 59.5888 0.0152
28 6 69.7387 59.9753 60.4144 0.0152
29 6 71.0595 60.0406 59.6073 0.0152
30 6 72.2786 60.0603 60.4150 0.0152
31 6 73.6082 60.0522 59.5910 0.0152
32 6 74.8942 59.9480 60.5140 0.0152
33 6 76.1930 59.9646 59.5781 0.0152
34 6 77.4492 60.0340 60.4037 0.0152
35 6 78.7546 59.9658 59.5859 0.0152
36 6 80.0100 59.9989 60.4362 0.0152
37 6 81.3720 60.0171 59.5269 0.0152
38 6 82.6817 60.0446 60.3953 0.0152
39 6 84.0111 60.0078 59.5491 0.0152
40 6 85.2784 59.9803 60.3242 0.0152
41 1 34.7274 58.9485 59.9540 0.0152
42 1 34.7178 61.0901 59.9504 0.0152
43 1 35.9563 58.9896 59.9744 0.0152
44 1 36.0290 61.0655 59.9783 0.0152
45 1 37.2808 58.9594 59.9894 0.0152
46 1 37.2617 60.9684 59.9820 0.0152
47 1 38.5936 58.9860 59.9559 0.0152
48 1 38.5827 61.0448 60.0063 0.0152
49 1 39.8893 58.8972 59.9303 0.0152
50 1 39.9374 61.0539 59.9944 0.0152
51 1 41.2039 58.9318 60.0032 0.0152
52 1 41.2087 61.0327 59.9894 0.0152
53 1 42.4587 59.0357 59.9291 0.0152
54 1 42.4775 61.0297 59.9569 0.0152
55 1 43.7924 58.9327 60.0586 0.0152
56 1 43.7808 60.9829 59.9532 0.0152
57 1 45.1225 59.0120 60.0436 0.0152
58 1 45.0555 61.0441 60.0106 0.0152
59 1 46.4477 58.8976 59.9271 0.0152
60 1 46.3692 61.0537 60.1190 0.0152
61 1 47.6287 58.9105 59.9922 0.0152
62 1 47.6979 61.0030 60.0407 0.0152
63 1 48.9771 58.9937 59.9403 0.0152
64 1 48.9810 61.0111 60.0010 0.0152
65 1 50.2548 58.9599 60.0516 0.0152
66 1 50.2965 61.0424 60.0767 0.0152
67 1 51.5492 59.0946 59.9595 0.0152
68 1 51.5787 61.0359 60.0546 0.0152
69 1 52.8962 58.8981 60.0069 0.0152
70 1 52.8170 61.0124 59.9939 0.0152
71 1 54.1125 58.9397 59.9529 0.0152
72 1 54.0895 61.1004 60.0256 0.0152
73 1 55.4670 59.0075 60.0283 0.0152
74 1 55.4620 60.9620 60.0230 0.0152
75 1 56.6498 58.9785 59.9848 0.0152
76 1 56.7498 61.1182 60.0273 0.0152
77 1 58.0854 59.0091 60.0222 0.0152
78 1 58.0830 60.9752 59.9527 0.0152
79 1 59.3599 58.9506 59.9446 0.0152
80 1 59.3318 61.0339 59.9852 0.0152
81 1 60.6373 58.9213 59.9740 0.0152
82 1 60.6175 61.0909 60.0003 0.0152
83 1 61.9107 59.0021 60.0378 0.0152
84 1 61.9540 60.9447 59.9601 0.0152
85 1 63.2291 58.9303 60.0468 0.0152
86 1 63.2998 61.0940 60.0229 0.0152
87 1 64.5479 58.9374 59.9813 0.0152
88 1 64.5610 61.0199 59.9871 0.0152
89 1 65.7749 58.9717 59.9857 0.0152
90 1 65.8103 61.1028 59.9794 0.0152
91 1 67.0819 58.9255 60.0186 0.0152
92 1 67.1155 61.0393 60.0292 0.0152
93 1 68.4128 58.9957 59.9254 0.0152
94 1 68.4923 61.0602 60.0366 0.0152
95 1 69.7102 58.8756 60.0683 0.0152
96 1 69.6960 60.9838 60.0223 0.0152
97 1 71.0338 58.9812 59.9985 0.0152
98 1 70.9749 61.0807 59.9357 0.0152
99 1 72.2968 58.9038 59.9982 0.0152
100 1 72.3347 61.0875 60.0274 0.0152
101 1 73.5385 58.9711 59.9682 0.0152
102 1 73.5981 60.9455 59.9334 0.0152
103 1 74.9034 58.9912 59.9836 0.0152
104 1 74.8998 61.0655 59.9842 0.0152
105 1 76.2686 59.0083 60.0547 0.0152
106 1 76.1961 61.0645 59.9499 0.0152
107 1 77.5070 58.9489 60.0930 0.0152
108 1 77.5611 61.0361 59.9659 0.0152
109 1 78.7375 59.0157 59.9545 0.0152
110 1 78.7631 61.0416 59.9878 0.0152
111 1 80.0964 58.8985 60.0483 0.0152
112 1 80.0985 60.9840 60.0636 0.0152
113 1 81.3992 58.9225 60.0413 0.0152
114 1 81.3539 61.0970 60.1150 0.0152
115 1 82.6807 58.9586 60.0607 0.0152
116 1 82.6860 61.0658 60.0135 0.0152
117 1 84.0008 58.9490 60.0263 0.0152
118 1 83.8752 60.9879 60.0045 0.0152
119 1 85.2822 58.9590 60.0284 0.0152
120 1 85.2424 61.0887 60.0077 0.0152
ITEM: TIMESTEP
300
ITEM: NUMBER OF ATOMS
120
ITEM: BOX BOUNDS pp pp pp
0.0 120.000000
0.0 120.000000
0.0 120.000000
ITEM: ATOMS id type x y z strain
1 6 34.6826 59.9521 59.5028 0.0182
2 6 35.9699 60.0318 60.3695 0.0182
3 6 37.2029 59.9681 59.6174 0.0182
4 6 38.5700 60.0376 60.3998 0.0182
5 6 39.8855 60.0281 59.5649 0.0182
6 6 41.2206 60.0607 60.4975 0.0182
7 6 42.4364 59.9635 59.5305 0.0182
8 6 43.6640 59.9740 60.4734 0.0182
9 6 45.0089 59.9927 59.6629 0.0182
10 6 46.3834 59.9741 60.4292 0.0182
11 6 47.6713 59.9709 59.5266 0.0182
12 6 48.9937 59.9941 60.4504 0.0182
13 6 50.2855 60.0155 59.5468 0.0182
14 6 51.6400 59.9789 60.3691 0.0182
15 6 52.8837 59.9742 59.5737 0.0182
16 6 54.1702 60.0187 60.4437 0.0182
17 6 55.4004 60.0260 59.6090 0.0184
18 6 56.7332 59.9737 60.4756 0.0193
19 6 58.0993 59.9970 59.5320 0.0222
20 6 59.3146 59.9795 60.3975 0.0267
21 6 60.6582 59.9791 59.5876 0.0291
22 6 61.9253 60.0180 60.4294 0.0267
23 6 63.3033 59.9536 59.5379 0.0222
24 6 64.5983 60.0006 60.4089 0.0193
25 6 65.8547 60.0280 59.5772 0.0184
26 6 67.1985 60.0161 60.4438 0.0182
27 6 68.4680 60.0833 59.5598 0.0182
28 6 69.7850 59.9886 60.4014 0.0182
29 6 71.1054 60.0022 59.5880 0.0182
30 6 72.3092 59.9955 60.4159 0.0182
31 6 73.7321 59.9473 59.5650 0.0182
32 6 74.9591 59.9903 60.4752 0.0182
33 6 76.2322 60.0193 59.5777 0.0182
34 6 77.5012 60.0031 60.4374 0.0182
35 6 78.7736 59.9608 59.5983 0.0182
36 6 80.1796 60.0239 60.4152 0.0182
37 6 81.3838 60.0610 59.6030 0.0182
38 6 82.7485 59.9954 60.3470 0.0182
39 6 84.0736 59.9278 59.5024 0.0182
40 6 85.3353 59.9812 60.4951 0.0182
41 1 34.6142 58.8933 59.9134 0.0182
42 1 34.6375 61.0334 60.0113 0.0182
43 1 35.9555 58.9876 59.9815 0.0182
44 1 35.9876 60.9540 59.9181 0.0182
45 1 37.3238 58.9324 59.9997 0.0182
46 1 37.1770 60.9883 60.0150 0.0182
47 1 38.5868 58.9861 60.0061 0.0182
48 1 38.5506 61.0523 60.0003 0.0182
49 1 39.7868 59.0036 60.0530 0.0182
50 1 39.8608 60.9765 60.0630 0.0182
51 1 41.1473 58.9344 59.9581 0.0182
52 1 41.1198 61.0339 59.9913 0.0182
53 1 42.4421 59.0111 59.9705 0.0182
54 1 42.4550 61.0170 59.9852 0.0182
55 1 43.7769 58.9224 59.9289 0.0182
56 1 43.7569 61.0499 60.0421 0.0182
57 1 45.0470 58.9840 60.0617 0.0182
58 1 45.0591 61.0171 59.9723 0.0182
59 1 46.3308 58.9599 60.0306 0.0182
60 1 46.3498 61.0215 60.0338 0.0182
61 1 47.6355 58.9669 60.0083 0.0182
62 1 47.7178 60.9837 60.0377 0.0182
63 1 48.9417 59.0618 59.9818 0.0182
64 1 48.9546 60.9555 59.9742 0.0182
65 1 50.2800 59.0085 60.0760 0.0182
66 1 50.2354 61.0273 59.9573 0.0182
67 1 51.5158 58.9537 60.0085 0.0182
68 1 51.5338 61.0506 60.0002 0.0182
69 1 52.9151 58.9549 59.9879 0.0182
70 1 52.8348 61.0651 59.9572 0.0182
71 1 54.1494 58.9970 60.0708 0.0182
72 1 54.1467 60.9810 60.0213 0.0182
73 1 55.3512 59.0193 60.0180 0.0182
74 1 55.4705 61.0540 59.9465 0.0182
75 1 56.7684 58.9888 59.9490 0.0182
76 1 56.7062 61.0549 60.0667 0.0182
77 1 58.0227 58.9921 59.9608 0.0182
78 1 58.0302 60.9894 60.0030 0.0182
79 1 59.3481 58.9164 59.9283 0.0182
80 1 59.3416 60.9730 60.0029 0.0182
81 1 60.5712 58.9751 59.9992 0.0182
82 1 60.6405 61.0354 59.9906 0.0182