ITEM: TIMESTEP
1
ITEM: NUMBER OF ATOMS
31250
ITEM: BOX BOUNDS pp pp pp
0.0 79.0
0.0 79.0
0.0 79.0
ITEM: ATOMS id type x y z damage
1 74 0.000 0.000 0.000 0.000
2 74 1.580 1.580 1.580 0.000
3 74 0.000 0.000 3.160 0.000
4 74 1.580 1.580 4.740 0.000
5 74 0.000 0.000 6.320 0.000
6 74 1.580 1.580 7.900 0.000
7 74 0.000 0.000 9.480 0.000
8 74 1.580 1.580 11.060 0.000
9 74 0.000 0.000 12.640 0.000
10 74 1.580 1.580 14.220 0.000
11 74 0.000 0.000 15.800 0.000
12 74 1.580 1.580 17.380 0.000
13 74 0.000 0.000 18.960 0.000
14 74 1.580 1.580 20.540 0.000
15 74 0.000 0.000 22.120 0.000
16 74 1.580 1.580 23.700 0.000
17 74 0.000 0.000 25.280 0.000
18 74 1.580 1.580 26.860 0.000
19 74 0.000 0.000 28.440 0.000
20 74 1.580 1.580 30.020 0.000
21 74 0.000 0.000 31.600 0.000
22 74 1.580 1.580 33.180 0.000
23 74 0.000 0.000 34.760 0.000
24 74 1.580 1.580 36.340 0.000
25 74 0.000 0.000 37.920 0.000
26 74 1.580 1.580 39.500 0.000
27 74 0.000 0.000 41.080 0.000
28 74 1.580 1.580 42.660 0.000
29 74 0.000 0.000 44.240 0.000
30 74 1.580 1.580 45.820 0.000
31 74 0.000 0.000 47.400 0.000
32 74 1.580 1.580 48.980 0.000
33 74 0.000 0.000 50.560 0.000
34 74 1.580 1.580 52.140 0.000
35 74 0.000 0.000 53.720 0.000
36 74 1.580 1.580 55.300 0.000
37 74 0.000 0.000 56.880 0.000
38 74 1.580 1.580 58.460 0.000
39 74 0.000 0.000 60.040 0.000
40 74 1.580 1.580 61.620 0.000
41 74 0.000 0.000 63.200 0.000
42 74 1.580 1.580 64.780 0.000
43 74 0.000 0.000 66.360 0.000
44 74 1.580 1.580 67.940 0.000
45 74 0.000 0.000 69.520 0.000
46 74 1.580 1.580 71.100 0.000
47 74 0.000 0.000 72.680 0.000
48 74 1.580 1.580 74.260 0.000
49 74 0.000 0.000 75.840 0.000
50 74 1.580 1.580 77.420 0.000
51 74 0.000 3.160 0.000 0.000
52 74 1.580 4.740 1.580 0.000
53 74 0.000 3.160 3.160 0.000
54 74 1.580 4.740 4.740 0.000
55 74 0.000 3.160 6.320 0.000
56 74 1.580 4.740 7.900 0.000
57 74 0.000 3.160 9.480 0.000
58 74 1.580 4.740 11.060 0.000
59 74 0.000 3.160 12.640 0.000
60 74 1.580 4.740 14.220 0.000
61 74 0.000 3.160 15.800 0.000
62 74 1.580 4.740 17.380 0.000
63 74 0.000 3.160 18.960 0.000
64 74 1.580 4.740 20.540 0.000
65 74 0.000 3.160 22.120 0.000
66 74 1.580 4.740 23.700 0.000
67 74 0.000 3.160 25.280 0.000
68 74 1.580 4.740 26.860 0.000
69 74 0.000 3.160 28.440 0.000
70 74 1.580 4.740 30.020 0.000
71 74 0.000 3.160 31.600 0.000
72 74 1.580 4.740 33.180 0.000
73 74 0.000 3.160 34.760 0.000
74 74 1.580 4.740 36.340 0.000
75 74 0.000 3.160 37.920 0.000
76 74 1.580 4.740 39.500 0.000
77 74 0.000 3.160 41.080 0.000
78 74 1.580 4.740 42.660 0.000
79 74 0.000 3.160 44.240 0.000
80 74 1.580 4.740 45.820 0.000
81 74 0.000 3.160 47.400 0.000
82 74 1.580 4.740 48.980 0.000
83 74 0.000 3.160 50.560 0.000
84 74 1.580 4.740 52.140 0.000
85 74 0.000 3.160 53.720 0.000
86 74 1.580 4.740 55.300 0.000
87 74 0.000 3.160 56.880 0.000
88 74 1.580 4.740 58.460 0.000
89 74 0.000 3.160 60.040 0.000
90 74 1.580 4.740 61.620 0.000
91 74 0.000 3.160 63.200 0.000
92 74 1.580 4.740 64.780 0.000
93 74 0.000 3.160 66.360 0.000
94 74 1.580 4.740 67.940 0.000
95 74 0.000 3.160 69.520 0.000
96 74 1.580 4.740 71.100 0.000
97 74 0.000 3.160 72.680 0.000
98 74 1.580 4.740 74.260 0.000
99 74 0.000 3.160 75.840 0.000
100 74 1.580 4.740 77.420 0.000
101 74 0.000 6.320 0.000 0.000
102 74 1.580 7.900 1.580 0.000
103 74 0.000 6.320 3.160 0.000
104 74 1.580 7.900 4.740 0.000
105 74 0.000 6.320 6.320 0.000
106 74 1.580 7.900 7.900 0.000
107 74 0.000 6.320 9.480 0.000
108 74 1.580 7.900 11.060 0.000
109 74 0.000 6.320 12.640 0.000
110 74 1.580 7.900 14.220 0.000
111 74 0.000 6.320 15.800 0.000
112 74 1.580 7.900 17.380 0.000
113 74 0.000 6.320 18.960 0.000
114 74 1.580 7.900 20.540 0.000
115 74 0.000 6.320 22.120 0.000
116 74 1.580 7.900 23.700 0.000
117 74 0.000 6.320 25.280 0.000
118 74 1.580 7.900 26.860 0.000
119 74 0.000 6.320 28.440 0.000
120 74 1.580 7.900 30.020 0.000
121 74 0.000 6.320 31.600 0.000
122 74 1.580 7.900 33.180 0.000
123 74 0.000 6.320 34.760 0.000
124 74 1.580 7.900 36.340 0.000
125 74 0.000 6.320 37.920 0.000
126 74 1.580 7.900 39.500 0.000
127 74 0.000 6.320 41.080 0.000
128 74 1.580 7.900 42.660 0.000
129 74 0.000 6.320 44.240 0.000
130 74 1.580 7.900 45.820 0.000
131 74 0.000 6.320 47.400 0.000
132 74 1.580 7.900 48.980 0.000
133 74 0.000 6.320 50.560 0.000
134 74 1.580 7.900 52.140 0.000
135 74 0.000 6.320 53.720 0.000
136 74 1.580 7.900 55.300 0.000
137 74 0.000 6.320 56.880 0.000
138 74 1.580 7.900 58.460 0.000
139 74 0.000 6.320 60.040 0.000
140 74 1.580 7.900 61.620 0.000
141 74 0.000 6.320 63.200 0.000
142 74 1.580 7.900 64.780 0.000
143 74 0.000 6.320 66.360 0.000
144 74 1.580 7.900 67.940 0.000
145 74 0.000 6.320 69.520 0.000
146 74 1.580 7.900 71.100 0.000
147 74 0.000 6.320 72.680 0.000
148 74 1.580 7.900 74.260 0.000
149 74 0.000 6.320 75.840 0.000
150 74 1.580 7.900 77.420 0.000
151 74 0.000 9.480 0.000 0.000
152 74 1.580 11.060 1.580 0.000
153 74 0.000 9.480 3.160 0.000
154 74 1.580 11.060 4.740 0.000
155 74 0.000 9.480 6.320 0.000
156 74 1.580 11.060 7.900 0.000
157 74 0.000 9.480 9.480 0.000
158 74 1.580 11.060 11.060 0.000
159 74 0.000 9.480 12.640 0.000
160 74 1.580 11.060 14.220 0.000
161 74 0.000 9.480 15.800 0.000
162 74 1.580 11.060 17.380 0.000
163 74 0.000 9.480 18.960 0.000
164 74 1.580 11.060 20.540 0.000
165 74 0.000 9.480 22.120 0.000
166 74 1.580 11.060 23.700 0.000
167 74 0.000 9.480 25.280 0.000
168 74 1.580 11.060 26.860 0.000
169 74 0.000 9.480 28.440 0.000
170 74 1.580 11.060 30.020 0.000
171 74 0.000 9.480 31.600 0.000
172 74 1.580 11.060 33.180 0.000
173 74 0.000 9.480 34.760 0.000
174 74 1.580 11.060 36.340 0.000
175 74 0.000 9.480 37.920 0.000
176 74 1.580 11.060 39.500 0.000
177 74 0.000 9.480 41.080 0.000
178 74 1.580 11.060 42.660 0.000
179 74 0.000 9.480 44.240 0.000
180 74 1.580 11.060 45.820 0.000
181 74 0.000 9.480 47.400 0.000
182 74 1.580 11.060 48.980 0.000
183 74 0.000 9.480 50.560 0.000
184 74 1.580 11.060 52.140 0.000
185 74 0.000 9.480 53.720 0.000
186 74 1.580 11.060 55.300 0.000
187 74 0.000 9.480 56.880 0.000
188 74 1.580 11.060 58.460 0.000
189 74 0.000 9.480 60.040 0.000
190 74 1.580 11.060 61.620 0.000
191 74 0.000 9.480 63.200 0.000
192 74 1.580 11.060 64.780 0.000
193 74 0.000 9.480 66.360 0.000
194 74 1.580 11.060 67.940 0.000
195 74 0.000 9.480 69.520 0.000
196 74 1.580 11.060 71.100 0.000
197 74 0.000 9.480 72.680 0.000
198 74 1.580 11.060 74.260 0.000
199 74 0.000 9.480 75.840 0.000
200 74 1.580 11.060 77.420 0.000
201 74 0.000 12.640 0.000 0.000
202 74 1.580 14.220 1.580 0.000
203 74 0.000 12.640 3.160 0.000
204 74 1.580 14.220 4.740 0.000
205 74 0.000 12.640 6.320 0.000
206 74 1.580 14.220 7.900 0.000
207 74 0.000 12.640 9.480 0.000
208 74 1.580 14.220 11.060 0.000
209 74 0.000 12.640 12.640 0.000
210 74 1.580 14.220 14.220 0.000
211 74 0.000 12.640 15.800 0.000
212 74 1.580 14.220 17.380 0.000
213 74 0.000 12.640 18.960 0.000
214 74 1.580 14.220 20.540 0.000
215 74 0.000 12.640 22.120 0.000
216 74 1.580 14.220 23.700 0.000
217 74 0.000 12.640 25.280 0.000
218 74 1.580 14.220 26.860 0.000
219 74 0.000 12.640 28.440 0.000
220 74 1.580 14.220 30.020 0.000
221 74 0.000 12.640 31.600 0.000
222 74 1.580 14.220 33.180 0.000
223 74 0.000 12.640 34.760 0.000
224 74 1.580 14.220 36.340 0.000
225 74 0.000 12.640 37.920 0.000
226 74 1.580 14.220 39.500 0.000
227 74 0.000 12.640 41.080 0.000
228 74 1.580 14.220 42.660 0.000
229 74 0.000 12.640 44.240 0.000
230 74 1.580 14.220 45.820 0.000
231 74 0.000 12.640 47.400 0.000
232 74 1.580 14.220 48.980 0.000
233 74 0.000 12.640 50.560 0.000
234 74 1.580 14.220 52.140 0.000
235 74 0.000 12.640 53.720 0.000
236 74 1.580 14.220 55.300 0.000
237 74 0.000 12.640 56.880 0.000
238 74 1.580 14.220 58.460 0.000
239 74 0.000 12.640 60.040 0.000
240 74 1.580 14.220 61.620 0.000
241 74 0.000 12.640 63.200 0.000
242 74 1.580 14.220 64.780 0.000
243 74 0.000 12.640 66.360 0.000
244 74 1.580 14.220 67.940 0.000
245 74 0.000 12.640 69.520 0.000
246 74 1.580 14.220 71.100 0.000
247 74 0.000 12.640 72.680 0.000
248 74 1.580 14.220 74.260 0.000
249 74 0.000 12.640 75.840 0.000
250 74 1.580 14.220 77.420 0.000
251 74 0.000 15.800 0.000 0.000
252 74 1.580 17.380 1.580 0.000
253 74 0.000 15.800 3.160 0.000
254 74 1.580 17.380 4.740 0.000
255 74 0.000 15.800 6.320 0.000
256 74 1.580 17.380 7.900 0.000
257 74 0.000 15.800 9.480 0.000
258 74 1.580 17.380 11.060 0.000
259 74 0.000 15.800 12.640 0.000
260 74 1.580 17.380 14.220 0.000
261 74 0.000 15.800 15.800 0.000
262 74 1.580 17.380 17.380 0.000
263 74 0.000 15.800 18.960 0.000
264 74 1.580 17.380 20.540 0.000
265 74 0.000 15.800 22.120 0.000
266 74 1.580 17.380 23.700 0.000
267 74 0.000 15.800 25.280 0.000
268 74 1.580 17.380 26.860 0.000
269 74 0.000 15.800 28.440 0.000
270 74 1.580 17.380 30.020 0.000
271 74 0.000 15.800 31.600 0.000
272 74 1.580 17.380 33.180 0.000
273 74 0.000 15.800 34.760 0.000
274 74 1.580 17.380 36.340 0.000
275 74 0.000 15.800 37.920 0.000
276 74 1.580 17.380 39.500 0.000
277 74 0.000 15.800 41.080 0.000
278 74 1.580 17.380 42.660 0.000
279 74 0.000 15.800 44.240 0.000
280 74 1.580 17.380 45.820 0.000
281 74 0.000 15.800 47.400 0.000
282 74 1.580 17.380 48.980 0.000
283 74 0.000 15.800 50.560 0.000
284 74 1.580 17.380 52.140 0.000
285 74 0.000 15.800 53.720 0.000
286 74 1.580 17.380 55.300 0.000
287 74 0.000 15.800 56.880 0.000
288 74 1.580 17.380 58.460 0.000
289 74 0.000 15.800 60.040 0.000
290 74 1.580 17.380 61.620 0.000
291 74 0.000 15.800 63.200 0.000
292 74 1.580 17.380 64.780 0.000
293 74 0.000 15.800 66.360 0.000
294 74 1.580 17.380 67.940 0.000
295 74 0.000 15.800 69.520 0.000
296 74 1.580 17.380 71.100 0.000
297 74 0.000 15.800 72.680 0.000
298 74 1.580 17.380 74.260 0.000
299 74 0.000 15.800 75.840 0.000
300 74 1.580 17.380 77.420 0.000
301 74 0.000 18.960 0.000 0.000
302 74 1.580 20.540 1.580 0.000
303 74 0.000 18.960 3.160 0.000
304 74 1.580 20.540 4.740 0.000
305 74 0.000 18.960 6.320 0.000
306 74 1.580 20.540 7.900 0.000
307 74 0.000 18.960 9.480 0.000
308 74 1.580 20.540 11.060 0.000
309 74 0.000 18.960 12.640 0.000
310 74 1.580 20.540 14.220 0.000
311 74 0.000 18.960 15.800 0.000
312 74 1.580 20.540 17.380 0.000
313 74 0.000 18.960 18.960 0.000
314 74 1.580 20.540 20.540 0.000
315 74 0.000 18.960 22.120 0.000
316 74 1.580 20.540 23.700 0.000
317 74 0.000 18.960 25.280 0.000
318 74 1.580 20.540 26.860 0.000
319 74 0.000 18.960 28.440 0.000
320 74 1.580 20.540 30.020 0.000
321 74 0.000 18.960 31.600 0.000
322 74 1.580 20.540 33.180 0.000
323 74 0.000 18.960 34.760 0.000
324 74 1.580 20.540 36.340 0.000
325 74 0.000 18.960 37.920 0.000
326 74 1.580 20.540 39.500 0.000
327 74 0.000 18.960 41.080 0.000
328 74 1.580 20.540 42.660 0.000
329 74 0.000 18.960 44.240 0.000
330 74 1.580 20.540 45.820 0.000
331 74 0.000 18.960 47.400 0.000
332 74 1.580 20.540 48.980 0.000
333 74 0.000 18.960 50.560 0.000
334 74 1.580 20.540 52.140 0.000
335 74 0.000 18.960 53.720 0.000
336 74 1.580 20.540 55.300 0.000
337 74 0.000 18.960 56.880 0.000
338 74 1.580 20.540 58.460 0.000
339 74 0.000 18.960 60.040 0.000
340 74 1.580 20.540 61.620 0.000
341 74 0.000 18.960 63.200 0.000
342 74 1.580 20.540 64.780 0.000
343 74 0.000 18.960 66.360 0.000
344 74 1.580 20.540 67.940 0.000
345 74 0.000 18.960 69.520 0.000
346 74 1.580 20.540 71.100 0.000
347 74 0.000 18.960 72.680 0.000
348 74 1.580 20.540 74.260 0.000
349 74 0.000 18.960 75.840 0.000
350 74 1.580 20.540 77.420 0.000
351 74 0.000 22.120 0.000 0.000
352 74 1.580 23.700 1.580 0.000
353 74 0.000 22.120 3.160 0.000
354 74 1.580 23.700 4.740 0.000
355 74 0.000 22.120 6.320 0.000
356 74 1.580 23.700 7.900 0.000
357 74 0.000 22.120 9.480 0.000
358 74 1.580 23.700 11.060 0.000
359 74 0.000 22.120 12.640 0.000
360 74 1.580 23.700 14.220 0.000
361 74 0.000 22.120 15.800 0.000
362 74 1.580 23.700 17.380 0.000
363 74 0.000 22.120 18.960 0.000
364 74 1.580 23.700 20.540 0.000
365 74 0.000 22.120 22.120 0.000
366 74 1.580 23.700 23.700 0.000
367 74 0.000 22.120 25.280 0.000
368 74 1.580 23.700 26.860 0.000
369 74 0.000 22.120 28.440 0.000
370 74 1.580 23.700 30.020 0.000
371 74 0.000 22.120 31.600 0.000
372 74 1.580 23.700 33.180 0.000
373 74 0.000 22.120 34.760 0.000
374 74 1.580 23.700 36.340 0.000
375 74 0.000 22.120 37.920 0.000
376 74 1.580 23.700 39.500 0.000
377 74 0.000 22.120 41.080 0.000
378 74 1.580 23.700 42.660 0.000
379 74 0.000 22.120 44.240 0.000
380 74 1.580 23.700 45.820 0.000
381 74 0.000 22.120 47.400 0.000
382 74 1.580 23.700 48.980 0.000
383 74 0.000 22.120 50.560 0.000
384 74 1.580 23.700 52.140 0.000
385 74 0.000 22.120 53.720 0.000
386 74 1.580 23.700 55.300 0.000
387 74 0.000 22.120 56.880 0.000
388 74 1.580 23.700 58.460 0.000
389 74 0.000 22.120 60.040 0.000
390 74 1.580 23.700 61.620 0.000
391 74 0.000 22.120 63.200 0.000
392 74 1.580 23.700 64.780 0.000
393 74 0.000 22.120 66.360 0.000
394 74 1.580 23.700 67.940 0.000
395 74 0.000 22.120 69.520 0.000
396 74 1.580 23.700 71.100 0.000
397 74 0.000 22.120 72.680 0.000
398 74 1.580 23.700 74.260 0.000
399 74 0.000 22.120 75.840 0.000
400 74 1.580 23.700 77.420 0.000
401 74 0.000 25.280 0.000 0.000
402 74 1.580 26.860 1.580 0.000
403 74 0.000 25.280 3.160 0.000
404 74 1.580 26.860 4.740 0.000
405 74 0.000 25.280 6.320 0.000
406 74 1.580 26.860 7.900 0.000
407 74 0.000 25.280 9.480 0.000
408 74 1.580 26.860 11.060 0.000
409 74 0.000 25.280 12.640 0.000
410 74 1.580 26.860 14.220 0.000
411 74 0.000 25.280 15.800 0.000
412 74 1.580 26.860 17.380 0.000
413 74 0.000 25.280 18.960 0.000
414 74 1.580 26.860 20.540 0.000
415 74 0.000 25.280 22.120 0.000
416 74 1.580 26.860 23.700 0.000
417 74 0.000 25.280 25.280 0.000
418 74 1.580 26.860 26.860 0.000
419 74 0.000 25.280 28.440 0.000
420 74 1.580 26.860 30.020 0.000
421 74 0.000 25.280 31.600 0.000
422 74 1.580 26.860 33.180 0.000
423 74 0.000 25.280 34.760 0.000
424 74 1.580 26.860 36.340 0.000
425 74 0.000 25.280 37.920 0.000
426 74 1.580 26.860 39.500 0.000
427 74 0.000 25.280 41.080 0.000
428 74 1.580 26.860 42.660 0.000
429 74 0.000 25.280 44.240 0.000
430 74 1.580 26.860 45.820 0.000
431 74 0.000 25.280 47.400 0.000
432 74 1.580 26.860 48.980 0.000
433 74 0.000 25.280 50.560 0.000
434 74 1.580 26.860 52.140 0.000
435 74 0.000 25.280 53.720 0.000
436 74 1.580 26.860 55.300 0.000
437 74 0.000 25.280 56.880 0.000
438 74 1.580 26.860 58.460 0.000
439 74 0.000 25.280 60.040 0.000
440 74 1.580 26.860 61.620 0.000
441 74 0.000 25.280 63.200 0.000
442 74 1.580 26.860 64.780 0.000
443 74 0.000 25.280 66.360 0.000
444 74 1.580 26.860 67.940 0.000
445 74 0.000 25.280 69.520 0.000
446 74 1.580 26.860 71.100 0.000
447 74 0.000 25.280 72.680 0.000
448 74 1.580 26.860 74.260 0.000
449 74 0.000 25.280 75.840 0.000
450 74 1.580 26.860 77.420 0.000
451 74 0.000 28.440 0.000 0.000
452 74 1.580 30.020 1.580 0.000
453 74 0.000 28.440 3.160 0.000
454 74 1.580 30.020 4.740 0.000
455 74 0.000 28.440 6.320 0.000
456 74 1.580 30.020 7.900 0.000
457 74 0.000 28.440 9.480 0.000
458 74 1.580 30.020 11.060 0.000
459 74 0.000 28.440 12.640 0.000
460 74 1.580 30.020 14.220 0.000
461 74 0.000 28.440 15.800 0.000
462 74 1.580 30.020 17.380 0.000
463 74 0.000 28.440 18.960 0.000
464 74 1.580 30.020 20.540 0.000
465 74 0.000 28.440 22.120 0.000
466 74 1.580 30.020 23.700 0.000
467 74 0.000 28.440 25.280 0.000
468 74 1.580 30.020 26.860 0.000
469 74 0.000 28.440 28.440 0.000
470 74 1.580 30.020 30.020 0.000
471 74 0.000 28.440 31.600 0.000
472 74 1.580 30.020 33.180 0.000
473 74 0.000 28.440 34.760 0.000
474 74 1.580 30.020 36.340 0.000
475 74 0.000 28.440 37.920 0.000
476 74 1.580 30.020 39.500 0.000
477 74 0.000 28.440 41.080 0.000
478 74 1.580 30.020 42.660 0.000
479 74 0.000 28.440 44.240 0.000
480 74 1.580 30.020 45.820 0.000
481 74 0.000 28.440 47.400 0.000
482 74 1.580 30.020 48.980 0.000
483 74 0.000 28.440 50.560 0.000
484 74 1.580 30.020 52.140 0.000
485 74 0.000 28.440 53.720 0.000
486 74 1.580 30.020 55.300 0.000
487 74 0.000 28.440 56.880 0.000
488 74 1.580 30.020 58.460 0.000
489 74 0.000 28.440 60.040 0.000
490 74 1.580 30.020 61.620 0.000
491 74 0.000 28.440 63.200 0.000
492 74 1.580 30.020 64.780 0.000
493 74 0.000 28.440 66.360 0.000
494 74 1.580 30.020 67.940 0.000
495 74 0.000 28.440 69.520 0.000
496 74 1.580 30.020 71.100 0.000
497 74 0.000 28.440 72.680 0.000
498 74 1.580 30.020 74.260 0.000
499 74 0.000 28.440 75.840 0.000
500 74 1.580 30.020 77.420 0.000
501 74 0.000 31.600 0.000 0.000
502 74 1.580 33.180 1.580 0.000
503 74 0.000 31.600 3.160 0.000
504 74 1.580 33.180 4.740 0.000
505 74 0.000 31.600 6.320 0.000
506 74 1.580 33.180 7.900 0.000
507 74 0.000 31.600 9.480 0.000
508 74 1.580 33.180 11.060 0.000
509 74 0.000 31.600 12.640 0.000
510 74 1.580 33.180 14.220 0.000
511 74 0.000 31.600 15.800 0.000
512 74 1.580 33.180 17.380 0.000
513 74 0.000 31.600 18.960 0.000
514 74 1.580 33.180 20.540 0.000
515 74 0.000 31.600 22.120 0.000
516 74 1.580 33.180 23.700 0.000
517 74 0.000 31.600 25.280 0.000
518 74 1.580 33.180 26.860 0.000
519 74 0.000 31.600 28.440 0.000
520 74 1.580 33.180 30.020 0.000
521 74 0.000 31.600 31.600 0.000
522 74 1.580 33.180 33.180 0.000
523 74 0.000 31.600 34.760 0.000
524 74 1.580 33.180 36.340 0.000
525 74 0.000 31.600 37.920 0.000
526 74 1.580 33.180 39.500 0.000
527 74 0.000 31.600 41.080 0.000
528 74 1.580 33.180 42.660 0.000
529 74 0.000 31.600 44.240 0.000
530 74 1.580 33.180 45.820 0.000
531 74 0.000 31.600 47.400 0.000
532 74 1.580 33.180 48.980 0.000
533 74 0.000 31.600 50.560 0.000
534 74 1.580 33.180 52.140 0.000
535 74 0.000 31.600 53.720 0.000
536 74 1.580 33.180 55.300 0.000
537 74 0.000 31.600 56.880 0.000
538 74 1.580 33.180 58.460 0.000
539 74 0.000 31.600 60.040 0.000
540 74 1.580 33.180 61.620 0.000
541 74 0.000 31.600 63.200 0.000
542 74 1.580 33.180 64.780 0.000
543 74 0.000 31.600 66.360 0.000
544 74 1.580 33.180 67.940 0.000
545 74 0.000 31.600 69.520 0.000
546 74 1.580 33.180 71.100 0.000
547 74 0.000 31.600 72.680 0.000
548 74 1.580 33.180 74.260 0.000
549 74 0.000 31.600 75.840 0.000
550 74 1.580 33.180 77.420 0.000
551 74 0.000 34.760 0.000 0.000
552 74 1.580 36.340 1.580 0.000
553 74 0.000 34.760 3.160 0.000
554 74 1.580 36.340 4.740 0.000
555 74 0.000 34.760 6.320 0.000
556 74 1.580 36.340 7.900 0.000
557 74 0.000 34.760 9.480 0.000
558 74 1.580 36.340 11.060 0.000
559 74 0.000 34.760 12.640 0.000
560 74 1.580 36.340 14.220 0.000
561 74 0.000 34.760 15.800 0.000
562 74 1.580 36.340 17.380 0.000
563 74 0.000 34.760 18.960 0.000
564 74 1.580 36.340 20.540 0.000
565 74 0.000 34.760 22.120 0.000
566 74 1.580 36.340 23.700 0.000
567 74 0.000 34.760 25.280 0.000
568 74 1.580 36.340 26.860 0.000
569 74 0.000 34.760 28.440 0.000
570 74 1.580 36.340 30.020 0.000
571 74 0.000 34.760 31.600 0.000
572 74 1.580 36.340 33.180 0.000
573 74 0.000 34.760 34.760 0.000
574 74 1.580 36.340 36.340 0.000
575 74 0.000 34.760 37.920 0.000
576 74 1.580 36.340 39.500 0.000
577 74 0.000 34.760 41.080 0.000
578 74 1.580 36.340 42.660 0.000
579 74 0.000 34.760 44.240 0.000
580 74 1.580 36.340 45.820 0.000
581 74 0.000 34.760 47.400 0.000
582 74 1.580 36.340 48.980 0.000
583 74 0.000 34.760 50.560 0.000
584 74 1.580 36.340 52.140 0.000
585 74 0.000 34.760 53.720 0.000
586 74 1.580 36.340 55.300 0.000
587 74 0.000 34.760 56.880 0.000
588 74 1.580 36.340 58.460 0.000
589 74 0.000 34.760 60.040 0.000
590 74 1.580 36.340 61.620 0.000
591 74 0.000 34.760 63.200 0.000
592 74 1.580 36.340 64.780 0.000
593 74 0.000 34.760 66.360 0.000
594 74 1.580 36.340 67.940 0.000
595 74 0.000 34.760 69.520 0.000
596 74 1.580 36.340 71.100 0.000
597 74 0.000 34.760 72.680 0.000
598 74 1.580 36.340 74.260 0.000
599 74 0.000 34.760 75.840 0.000
600 74 1.580 36.340 77.420 0.000
601 74 0.000 37.920 0.000 0.000
602 74 1.580 39.500 1.580 0.000
603 74 0.000 37.920 3.160 0.000
604 74 1.580 39.500 4.740 0.000
605 74 0.000 37.920 6.320 0.000
606 74 1.580 39.500 7.900 0.000
607 74 0.000 37.920 9.480 0.000
608 74 1.580 39.500 11.060 0.000
609 74 0.000 37.920 12.640 0.000
610 74 1.580 39.500 14.220 0.000
611 74 0.000 37.920 15.800 0.000
612 74 1.580 39.500 17.380 0.000
613 74 0.000 37.920 18.960 0.000
614 74 1.580 39.500 20.540 0.000
615 74 0.000 37.920 22.120 0.000
616 74 1.580 39.500 23.700 0.000
617 74 0.000 37.920 25.280 0.000
618 74 1.580 39.500 26.860 0.000
619 74 0.000 37.920 28.440 0.000
620 74 1.580 39.500 30.020 0.000
621 74 0.000 37.920 31.600 0.000
622 74 1.580 39.500 33.180 0.000
623 74 0.000 37.920 34.760 0.000
624 74 1.580 39.500 36.340 0.000
625 74 0.000 37.920 37.920 0.000
626 74 1.580 39.500 39.500 0.000
627 74 0.000 37.920 41.080 0.000
628 74 1.580 39.500 42.660 0.000
629 74 0.000 37.920 44.240 0.000
630 74 1.580 39.500 45.820 0.000
631 74 0.000 37.920 47.400 0.000
632 74 1.580 39.500 48.980 0.000
633 74 0.000 37.920 50.560 0.000
634 74 1.580 39.500 52.140 0.000
635 74 0.000 37.920 53.720 0.000
636 74 1.580 39.500 55.300 0.000
637 74 0.000 37.920 56.880 0.000
638 74 1.580 39.500 58.460 0.000
639 74 0.000 37.920 60.040 0.000
640 74 1.580 39.500 61.620 0.000
641 74 0.000 37.920 63.200 0.000
642 74 1.580 39.500 64.780 0.000
643 74 0.000 37.920 66.360 0.000
644 74 1.580 39.500 67.940 0.000
645 74 0.000 37.920 69.520 0.000
646 74 1.580 39.500 71.100 0.000
647 74 0.000 37.920 72.680 0.000
648 74 1.580 39.500 74.260 0.000
649 74 0.000 37.920 75.840 0.000
650 74 1.580 39.500 77.420 0.000
651 74 0.000 41.080 0.000 0.000
652 74 1.580 42.660 1.580 0.000
653 74 0.000 41.080 3.160 0.000
654 74 1.580 42.660 4.740 0.000
655 74 0.000 41.080 6.320 0.000
656 74 1.580 42.660 7.900 0.000
657 74 0.000 41.080 9.480 0.000
658 74 1.580 42.660 11.060 0.000
659 74 0.000 41.080 12.640 0.000
660 74 1.580 42.660 14.220 0.000
661 74 0.000 41.080 15.800 0.000
662 74 1.580 42.660 17.380 0.000
663 74 0.000 41.080 18.960 0.000
664 74 1.580 42.660 20.540 0.000
665 74 0.000 41.080 22.120 0.000
666 74 1.580 42.660 23.700 0.000
667 74 0.000 41.080 25.280 0.000
668 74 1.580 42.660 26.860 0.000
669 74 0.000 41.080 28.440 0.000
670 74 1.580 42.660 30.020 0.000
671 74 0.000 41.080 31.600 0.000
672 74 1.580 42.660 33.180 0.000
673 74 0.000 41.080 34.760 0.000
674 74 1.580 42.660 36.340 0.000
675 74 0.000 41.080 37.920 0.000
676 74 1.580 42.660 39.500 0.000
677 74 0.000 41.080 41.080 0.000
678 74 1.580 42.660 42.660 0.000
679 74 0.000 41.080 44.240 0.000
680 74 1.580 42.660 45.820 0.000
681 74 0.000 41.080 47.400 0.000
682 74 1.580 42.660 48.980 0.000
683 74 0.000 41.080 50.560 0.000
684 74 1.580 42.660 52.140 0.000
685 74 0.000 41.080 53.720 0.000
686 74 1.580 42.660 55.300 0.000
687 74 0.000 41.080 56.880 0.000
688 74 1.580 42.660 58.460 0.000
689 74 0.000 41.080 60.040 0.000
690 74 1.580 42.660 61.620 0.000
691 74 0.000 41.080 63.200 0.000
692 74 1.580 42.660 64.780 0.000
693 74 0.000 41.080 66.360 0.000
694 74 1.580 42.660 67.940 0.000
695 74 0.000 41.080 69.520 0.000
696 74 1.580 42.660 71.100 0.000
697 74 0.000 41.080 72.680 0.000
698 74 1.580 42.660 74.260 0.000
699 74 0.000 41.080 75.840 0.000
700 74 1.580 42.660 77.420 0.000
701 74 0.000 44.240 0.000 0.000
702 74 1.580 45.820 1.580 0.000
703 74 0.000 44.240 3.160 0.000
704 74 1.580 45.820 4.740 0.000
705 74 0.000 44.240 6.320 0.000
706 74 1.580 45.820 7.900 0.000
707 74 0.000 44.240 9.480 0.000
708 74 1.580 45.820 11.060 0.000
709 74 0.000 44.240 12.640 0.000
710 74 1.580 45.820 14.220 0.000
711 74 0.000 44.240 15.800 0.000
712 74 1.580 45.820 17.380 0.000
713 74 0.000 44.240 18.960 0.000
714 74 1.580 45.820 20.540 0.000
715 74 0.000 44.240 22.120 0.000
716 74 1.580 45.820 23.700 0.000
717 74 0.000 44.240 25.280 0.000
718 74 1.580 45.820 26.860 0.000
719 74 0.000 44.240 28.440 0.000
720 74 1.580 45.820 30.020 0.000
721 74 0.000 44.240 31.600 0.000
722 74 1.580 45.820 33.180 0.000
723 74 0.000 44.240 34.760 0.000
724 74 1.580 45.820 36.340 0.000
725 74 0.000 44.240 37.920 0.000
726 74 1.580 45.820 39.500 0.000
727 74 0.000 44.240 41.080 0.000
728 74 1.580 45.820 42.660 0.000
729 74 0.000 44.240 44.240 0.000
730 74 1.580 45.820 45.820 0.000
731 74 0.000 44.240 47.400 0.000
732 74 1.580 45.820 48.980 0.000
733 74 0.000 44.240 50.560 0.000
734 74 1.580 45.820 52.140 0.000
735 74 0.000 44.240 53.720 0.000
736 74 1.580 45.820 55.300 0.000
737 74 0.000 44.240 56.880 0.000
738 74 1.580 45.820 58.460 0.000
739 74 0.000 44.240 60.040 0.000
740 74 1.580 45.820 61.620 0.000
741 74 0.000 44.240 63.200 0.000
742 74 1.580 45.820 64.780 0.000
743 74 0.000 44.240 66.360 0.000
744 74 1.580 45.820 67.940 0.000
745 74 0.000 44.240 69.520 0.000
746 74 1.580 45.820 71.100 0.000
747 74 0.000 44.240 72.680 0.000
748 74 1.580 45.820 74.260 0.000
749 74 0.000 44.240 75.840 0.000
750 74 1.580 45.820 77.420 0.000
751 74 0.000 47.400 0.000 0.000
752 74 1.580 48.980 1.580 0.000
753 74 0.000 47.400 3.160 0.000
754 74 1.580 48.980 4.740 0.000
755 74 0.000 47.400 6.320 0.000
756 74 1.580 48.980 7.900 0.000
757 74 0.000 47.400 9.480 0.000
758 74 1.580 48.980 11.060 0.000
759 74 0.000 47.400 12.640 0.000
760 74 1.580 48.980 14.220 0.000
761 74 0.000 47.400 15.800 0.000
762 74 1.580 48.980 17.380 0.000
763 74 0.000 47.400 18.960 0.000
764 74 1.580 48.980 20.540 0.000
765 74 0.000 47.400 22.120 0.000
766 74 1.580 48.980 23.700 0.000
767 74 0.000 47.400 25.280 0.000
768 74 1.580 48.980 26.860 0.000
769 74 0.000 47.400 28.440 0.000
770 74 1.580 48.980 30.020 0.000
771 74 0.000 47.400 31.600 0.000
772 74 1.580 48.980 33.180 0.000
773 74 0.000 47.400 34.760 0.000
774 74 1.580 48.980 36.340 0.000
775 74 0.000 47.400 37.920 0.000
776 74 1.580 48.980 39.500 0.000
777 74 0.000 47.400 41.080 0.000
778 74 1.580 48.980 42.660 0.000
779 74 0.000 47.400 44.240 0.000
780 74 1.580 48.980 45.820 0.000
781 74 0.000 47.400 47.400 0.000
782 74 1.580 48.980 48.980 0.000
783 74 0.000 47.400 50.560 0.000
784 74 1.580 48.980 52.140 0.000
785 74 0.000 47.400 53.720 0.000
786 74 1.580 48.980 55.300 0.000
787 74 0.000 47.400 56.880 0.000
788 74 1.580 48.980 58.460 0.000
789 74 0.000 47.400 60.040 0.000
790 74 1.580 48.980 61.620 0.000
791 74 0.000 47.400 63.200 0.000
792 74 1.580 48.980 64.780 0.000
793 74 0.000 47.400 66.360 0.000
794 74 1.580 48.980 67.940 0.000
795 74 0.000 47.400 69.520 0.000
796 74 1.580 48.980 71.100 0.000
797 74 0.000 47.400 72.680 0.000
798 74 1.580 48.980 74.260 0.000
799 74 0.000 47.400 75.840 0.000
800 74 1.580 48.980 77.420 0.000
801 74 0.000 50.560 0.000 0.000
802 74 1.580 52.140 1.580 0.000
803 74 0.000 50.560 3.160 0.000
804 74 1.580 52.140 4.740 0.000
805 74 0.000 50.560 6.320 0.000
806 74 1.580 52.140 7.900 0.000
807 74 0.000 50.560 9.480 0.000
808 74 1.580 52.140 11.060 0.000
809 74 0.000 50.560 12.640 0.000
810 74 1.580 52.140 14.220 0.000
811 74 0.000 50.560 15.800 0.000
812 74 1.580 52.140 17.380 0.000
813 74 0.000 50.560 18.960 0.000
814 74 1.580 52.140 20.540 0.000
815 74 0.000 50.560 22.120 0.000
816 74 1.580 52.140 23.700 0.000
817 74 0.000 50.560 25.280 0.000
818 74 1.580 52.140 26.860 0.000
819 74 0.000 50.560 28.440 0.000
820 74 1.580 52.140 30.020 0.000
821 74 0.000 50.560 31.600 0.000
822 74 1.580 52.140 33.180 0.000
823 74 0.000 50.560 34.760 0.000
824 74 1.580 52.140 36.340 0.000
825 74 0.000 50.560 37.920 0.000
826 74 1.580 52.140 39.500 0.000
827 74 0.000 50.560 41.080 0.000
828 74 1.580 52.140 42.660 0.000
829 74 0.000 50.560 44.240 0.000
830 74 1.580 52.140 45.820 0.000
831 74 0.000 50.560 47.400 0.000
832 74 1.580 52.140 48.980 0.000
833 74 0.000 50.560 50.560 0.000
834 74 1.580 52.140 52.140 0.000
835 74 0.000 50.560 53.720 0.000
836 74 1.580 52.140 55.300 0.000
837 74 0.000 50.560 56.880 0.000
838 74 1.580 52.140 58.460 0.000
839 74 0.000 50.560 60.040 0.000
840 74 1.580 52.140 61.620 0.000
841 74 0.000 50.560 63.200 0.000
842 74 1.580 52.140 64.780 0.000
843 74 0.000 50.560 66.360 0.000
844 74 1.580 52.140 67.940 0.000
845 74 0.000 50.560 69.520 0.000
846 74 1.580 52.140 71.100 0.000
847 74 0.000 50.560 72.680 0.000
848 74 1.580 52.140 74.260 0.000
849 74 0.000 50.560 75.840 0.000
850 74 1.580 52.140 77.420 0.000
851 74 0.000 53.720 0.000 0.000
852 74 1.580 55.300 1.580 0.000
853 74 0.000 53.720 3.160 0.000
854 74 1.580 55.300 4.740 0.000
855 74 0.000 53.720 6.320 0.000
856 74 1.580 55.300 7.900 0.000
857 74 0.000 53.720 9.480 0.000
858 74 1.580 55.300 11.060 0.000
859 74 0.000 53.720 12.640 0.000
860 74 1.580 55.300 14.220 0.000
861 74 0.000 53.720 15.800 0.000
862 74 1.580 55.300 17.380 0.000
863 74 0.000 53.720 18.960 0.000
864 74 1.580 55.300 20.540 0.000
865 74 0.000 53.720 22.120 0.000
866 74 1.580 55.300 23.700 0.000
867 74 0.000 53.720 25.280 0.000
868 74 1.580 55.300 26.860 0.000
869 74 0.000 53.720 28.440 0.000
870 74 1.580 55.300 30.020 0.000
871 74 0.000 53.720 31.600 0.000
872 74 1.580 55.300 33.180 0.000
873 74 0.000 53.720 34.760 0.000
874 74 1.580 55.300 36.340 0.000
875 74 0.000 53.720 37.920 0.000
876 74 1.580 55.300 39.500 0.000
877 74 0.000 53.720 41.080 0.000
878 74 1.580 55.300 42.660 0.000
879 74 0.000 53.720 44.240 0.000
880 74 1.580 55.300 45.820 0.000
881 74 0.000 53.720 47.400 0.000
882 74 1.580 55.300 48.980 0.000
883 74 0.000 53.720 50.560 0.000
884 74 1.580 55.300 52.140 0.000
885 74 0.000 53.720 53.720 0.000
886 74 1.580 55.300 55.300 0.000
887 74 0.000 53.720 56.880 0.000
888 74 1.580 55.300 58.460 0.000
889 74 0.000 53.720 60.040 0.000
890 74 1.580 55.300 61.620 0.000
891 74 0.000 53.720 63.200 0.000
892 74 1.580 55.300 64.780 0.000
893 74 0.000 53.720 66.360 0.000
894 74 1.580 55.300 67.940 0.000
895 74 0.000 53.720 69.520 0.000
896 74 1.580 55.300 71.100 0.000
897 74 0.000 53.720 72.680 0.000
898 74 1.580 55.300 74.260 0.000
899 74 0.000 53.720 75.840 0.000
900 74 1.580 55.300 77.420 0.000
901 74 0.000 56.880 0.000 0.000
902 74 1.580 58.460 1.580 0.000
903 74 0.000 56.880 3.160 0.000
904 74 1.580 58.460 4.740 0.000
905 74 0.000 56.880 6.320 0.000
906 74 1.580 58.460 7.900 0.000
907 74 0.000 56.880 9.480 0.000
908 74 1.580 58.460 11.060 0.000
909 74 0.000 56.880 12.640 0.000
910 74 1.580 58.460 14.220 0.000
911 74 0.000 56.880 15.800 0.000
912 74 1.580 58.460 17.380 0.000
913 74 0.000 56.880 18.960 0.000
914 74 1.580 58.460 20.540 0.000
915 74 0.000 56.880 22.120 0.000
916 74 1.580 58.460 23.700 0.000
917 74 0.000 56.880 25.280 0.000