ITEM: TIMESTEP
0
ITEM: NUMBER OF ATOMS
540
ITEM: BOX BOUNDS pp pp pp
0.0 51.0
0.0 51.0
0.0 51.0
ITEM: ATOMS id type x y z
1 30 0.000 0.000 0.000
2 7 -2.550 0.000 0.000
3 6 -3.825 0.000 0.000
4 7 2.550 0.000 0.000
5 6 3.825 0.000 0.000
6 30 8.500 8.500 0.000
7 7 5.950 8.500 0.000
8 6 4.675 8.500 0.000
9 7 11.050 8.500 0.000
10 6 12.325 8.500 0.000
11 30 8.500 0.000 8.500
12 7 5.950 0.000 8.500
13 6 4.675 0.000 8.500
14 7 11.050 0.000 8.500
15 6 12.325 0.000 8.500
16 30 0.000 8.500 8.500
17 7 -2.550 8.500 8.500
18 6 -3.825 8.500 8.500
19 7 2.550 8.500 8.500
20 6 3.825 8.500 8.500
21 30 0.000 0.000 17.000
22 7 -2.550 0.000 17.000
23 6 -3.825 0.000 17.000
24 7 2.550 0.000 17.000
25 6 3.825 0.000 17.000
26 30 8.500 8.500 17.000
27 7 5.950 8.500 17.000
28 6 4.675 8.500 17.000
29 7 11.050 8.500 17.000
30 6 12.325 8.500 17.000
31 30 8.500 0.000 25.500
32 7 5.950 0.000 25.500
33 6 4.675 0.000 25.500
34 7 11.050 0.000 25.500
35 6 12.325 0.000 25.500
36 30 0.000 8.500 25.500
37 7 -2.550 8.500 25.500
38 6 -3.825 8.500 25.500
39 7 2.550 8.500 25.500
40 6 3.825 8.500 25.500
41 30 0.000 0.000 34.000
42 7 -2.550 0.000 34.000
43 6 -3.825 0.000 34.000
44 7 2.550 0.000 34.000
45 6 3.825 0.000 34.000
46 30 8.500 8.500 34.000
47 7 5.950 8.500 34.000
48 6 4.675 8.500 34.000
49 7 11.050 8.500 34.000
50 6 12.325 8.500 34.000
51 30 8.500 0.000 42.500
52 7 5.950 0.000 42.500
53 6 4.675 0.000 42.500
54 7 11.050 0.000 42.500
55 6 12.325 0.000 42.500
56 30 0.000 8.500 42.500
57 7 -2.550 8.500 42.500
58 6 -3.825 8.500 42.500
59 7 2.550 8.500 42.500
60 6 3.825 8.500 42.500
61 30 0.000 17.000 0.000
62 7 -2.550 17.000 0.000
63 6 -3.825 17.000 0.000
64 7 2.550 17.000 0.000
65 6 3.825 17.000 0.000
66 30 8.500 25.500 0.000
67 7 5.950 25.500 0.000
68 6 4.675 25.500 0.000
69 7 11.050 25.500 0.000
70 6 12.325 25.500 0.000
71 30 8.500 17.000 8.500
72 7 5.950 17.000 8.500
73 6 4.675 17.000 8.500
74 7 11.050 17.000 8.500
75 6 12.325 17.000 8.500
76 30 0.000 25.500 8.500
77 7 -2.550 25.500 8.500
78 6 -3.825 25.500 8.500
79 7 2.550 25.500 8.500
80 6 3.825 25.500 8.500
81 30 0.000 17.000 17.000
82 7 -2.550 17.000 17.000
83 6 -3.825 17.000 17.000
84 7 2.550 17.000 17.000
85 6 3.825 17.000 17.000
86 30 8.500 25.500 17.000
87 7 5.950 25.500 17.000
88 6 4.675 25.500 17.000
89 7 11.050 25.500 17.000
90 6 12.325 25.500 17.000
91 30 8.500 17.000 25.500
92 7 5.950 17.000 25.500
93 6 4.675 17.000 25.500
94 7 11.050 17.000 25.500
95 6 12.325 17.000 25.500
96 30 0.000 25.500 25.500
97 7 -2.550 25.500 25.500
98 6 -3.825 25.500 25.500
99 7 2.550 25.500 25.500
100 6 3.825 25.500 25.500
101 30 0.000 17.000 34.000
102 7 -2.550 17.000 34.000
103 6 -3.825 17.000 34.000
104 7 2.550 17.000 34.000
105 6 3.825 17.000 34.000
106 30 8.500 25.500 34.000
107 7 5.950 25.500 34.000
108 6 4.675 25.500 34.000
109 7 11.050 25.500 34.000
110 6 12.325 25.500 34.000
111 30 8.500 17.000 42.500
112 7 5.950 17.000 42.500
113 6 4.675 17.000 42.500
114 7 11.050 17.000 42.500
115 6 12.325 17.000 42.500
116 30 0.000 25.500 42.500
117 7 -2.550 25.500 42.500
118 6 -3.825 25.500 42.500
119 7 2.550 25.500 42.500
120 6 3.825 25.500 42.500
121 30 0.000 34.000 0.000
122 7 -2.550 34.000 0.000
123 6 -3.825 34.000 0.000
124 7 2.550 34.000 0.000
125 6 3.825 34.000 0.000
126 30 8.500 42.500 0.000
127 7 5.950 42.500 0.000
128 6 4.675 42.500 0.000
129 7 11.050 42.500 0.000
130 6 12.325 42.500 0.000
131 30 8.500 34.000 8.500
132 7 5.950 34.000 8.500
133 6 4.675 34.000 8.500
134 7 11.050 34.000 8.500
135 6 12.325 34.000 8.500
136 30 0.000 42.500 8.500
137 7 -2.550 42.500 8.500
138 6 -3.825 42.500 8.500
139 7 2.550 42.500 8.500
140 6 3.825 42.500 8.500
141 30 0.000 34.000 17.000
142 7 -2.550 34.000 17.000
143 6 -3.825 34.000 17.000
144 7 2.550 34.000 17.000
145 6 3.825 34.000 17.000
146 30 8.500 42.500 17.000
147 7 5.950 42.500 17.000
148 6 4.675 42.500 17.000
149 7 11.050 42.500 17.000
150 6 12.325 42.500 17.000
151 30 8.500 34.000 25.500
152 7 5.950 34.000 25.500
153 6 4.675 34.000 25.500
154 7 11.050 34.000 25.500
155 6 12.325 34.000 25.500
156 30 0.000 42.500 25.500
157 7 -2.550 42.500 25.500
158 6 -3.825 42.500 25.500
159 7 2.550 42.500 25.500
160 6 3.825 42.500 25.500
161 30 0.000 34.000 34.000
162 7 -2.550 34.000 34.000
163 6 -3.825 34.000 34.000
164 7 2.550 34.000 34.000
165 6 3.825 34.000 34.000
166 30 8.500 42.500 34.000
167 7 5.950 42.500 34.000
168 6 4.675 42.500 34.000
169 7 11.050 42.500 34.000
170 6 12.325 42.500 34.000
171 30 8.500 34.000 42.500
172 7 5.950 34.000 42.500
173 6 4.675 34.000 42.500
174 7 11.050 34.000 42.500
175 6 12.325 34.000 42.500
176 30 0.000 42.500 42.500
177 7 -2.550 42.500 42.500
178 6 -3.825 42.500 42.500
179 7 2.550 42.500 42.500
180 6 3.825 42.500 42.500
181 30 17.000 0.000 0.000
182 7 14.450 0.000 0.000
183 6 13.175 0.000 0.000
184 7 19.550 0.000 0.000
185 6 20.825 0.000 0.000
186 30 25.500 8.500 0.000
187 7 22.950 8.500 0.000
188 6 21.675 8.500 0.000
189 7 28.050 8.500 0.000
190 6 29.325 8.500 0.000
191 30 25.500 0.000 8.500
192 7 22.950 0.000 8.500
193 6 21.675 0.000 8.500
194 7 28.050 0.000 8.500
195 6 29.325 0.000 8.500
196 30 17.000 8.500 8.500
197 7 14.450 8.500 8.500
198 6 13.175 8.500 8.500
199 7 19.550 8.500 8.500
200 6 20.825 8.500 8.500
201 30 17.000 0.000 17.000
202 7 14.450 0.000 17.000
203 6 13.175 0.000 17.000
204 7 19.550 0.000 17.000
205 6 20.825 0.000 17.000
206 30 25.500 8.500 17.000
207 7 22.950 8.500 17.000
208 6 21.675 8.500 17.000
209 7 28.050 8.500 17.000
210 6 29.325 8.500 17.000
211 30 25.500 0.000 25.500
212 7 22.950 0.000 25.500
213 6 21.675 0.000 25.500
214 7 28.050 0.000 25.500
215 6 29.325 0.000 25.500
216 30 17.000 8.500 25.500
217 7 14.450 8.500 25.500
218 6 13.175 8.500 25.500
219 7 19.550 8.500 25.500
220 6 20.825 8.500 25.500
221 30 17.000 0.000 34.000
222 7 14.450 0.000 34.000
223 6 13.175 0.000 34.000
224 7 19.550 0.000 34.000
225 6 20.825 0.000 34.000
226 30 25.500 8.500 34.000
227 7 22.950 8.500 34.000
228 6 21.675 8.500 34.000
229 7 28.050 8.500 34.000
230 6 29.325 8.500 34.000
231 30 25.500 0.000 42.500
232 7 22.950 0.000 42.500
233 6 21.675 0.000 42.500
234 7 28.050 0.000 42.500
235 6 29.325 0.000 42.500
236 30 17.000 8.500 42.500
237 7 14.450 8.500 42.500
238 6 13.175 8.500 42.500
239 7 19.550 8.500 42.500
240 6 20.825 8.500 42.500
241 30 17.000 17.000 0.000
242 7 14.450 17.000 0.000
243 6 13.175 17.000 0.000
244 7 19.550 17.000 0.000
245 6 20.825 17.000 0.000
246 30 25.500 25.500 0.000
247 7 22.950 25.500 0.000
248 6 21.675 25.500 0.000
249 7 28.050 25.500 0.000
250 6 29.325 25.500 0.000
251 30 25.500 17.000 8.500
252 7 22.950 17.000 8.500
253 6 21.675 17.000 8.500
254 7 28.050 17.000 8.500
255 6 29.325 17.000 8.500
256 30 17.000 25.500 8.500
257 7 14.450 25.500 8.500
258 6 13.175 25.500 8.500
259 7 19.550 25.500 8.500
260 6 20.825 25.500 8.500
261 30 17.000 17.000 17.000
262 7 14.450 17.000 17.000
263 6 13.175 17.000 17.000
264 7 19.550 17.000 17.000
265 6 20.825 17.000 17.000
266 30 25.500 25.500 17.000
267 7 22.950 25.500 17.000
268 6 21.675 25.500 17.000
269 7 28.050 25.500 17.000
270 6 29.325 25.500 17.000
271 30 25.500 17.000 25.500
272 7 22.950 17.000 25.500
273 6 21.675 17.000 25.500
274 7 28.050 17.000 25.500
275 6 29.325 17.000 25.500
276 30 17.000 25.500 25.500
277 7 14.450 25.500 25.500
278 6 13.175 25.500 25.500
279 7 19.550 25.500 25.500
280 6 20.825 25.500 25.500
281 30 17.000 17.000 34.000
282 7 14.450 17.000 34.000
283 6 13.175 17.000 34.000
284 7 19.550 17.000 34.000
285 6 20.825 17.000 34.000
286 30 25.500 25.500 34.000
287 7 22.950 25.500 34.000
288 6 21.675 25.500 34.000
289 7 28.050 25.500 34.000
290 6 29.325 25.500 34.000
291 30 25.500 17.000 42.500
292 7 22.950 17.000 42.500
293 6 21.675 17.000 42.500
294 7 28.050 17.000 42.500
295 6 29.325 17.000 42.500
296 30 17.000 25.500 42.500
297 7 14.450 25.500 42.500
298 6 13.175 25.500 42.500
299 7 19.550 25.500 42.500
300 6 20.825 25.500 42.500
301 30 17.000 34.000 0.000
302 7 14.450 34.000 0.000
303 6 13.175 34.000 0.000
304 7 19.550 34.000 0.000
305 6 20.825 34.000 0.000
306 30 25.500 42.500 0.000
307 7 22.950 42.500 0.000
308 6 21.675 42.500 0.000
309 7 28.050 42.500 0.000
310 6 29.325 42.500 0.000
311 30 25.500 34.000 8.500
312 7 22.950 34.000 8.500
313 6 21.675 34.000 8.500
314 7 28.050 34.000 8.500
315 6 29.325 34.000 8.500
316 30 17.000 42.500 8.500
317 7 14.450 42.500 8.500
318 6 13.175 42.500 8.500
319 7 19.550 42.500 8.500
320 6 20.825 42.500 8.500
321 30 17.000 34.000 17.000
322 7 14.450 34.000 17.000
323 6 13.175 34.000 17.000
324 7 19.550 34.000 17.000
325 6 20.825 34.000 17.000
326 30 25.500 42.500 17.000
327 7 22.950 42.500 17.000
328 6 21.675 42.500 17.000
329 7 28.050 42.500 17.000
330 6 29.325 42.500 17.000
331 30 25.500 34.000 25.500
332 7 22.950 34.000 25.500
333 6 21.675 34.000 25.500
334 7 28.050 34.000 25.500
335 6 29.325 34.000 25.500
336 30 17.000 42.500 25.500
337 7 14.450 42.500 25.500
338 6 13.175 42.500 25.500
339 7 19.550 42.500 25.500
340 6 20.825 42.500 25.500
341 30 17.000 34.000 34.000
342 7 14.450 34.000 34.000
343 6 13.175 34.000 34.000
344 7 19.550 34.000 34.000
345 6 20.825 34.000 34.000
346 30 25.500 42.500 34.000
347 7 22.950 42.500 34.000
348 6 21.675 42.500 34.000
349 7 28.050 42.500 34.000
350 6 29.325 42.500 34.000
351 30 25.500 34.000 42.500
352 7 22.950 34.000 42.500
353 6 21.675 34.000 42.500
354 7 28.050 34.000 42.500
355 6 29.325 34.000 42.500
356 30 17.000 42.500 42.500
357 7 14.450 42.500 42.500
358 6 13.175 42.500 42.500
359 7 19.550 42.500 42.500
360 6 20.825 42.500 42.500
361 30 34.000 0.000 0.000
362 7 31.450 0.000 0.000
363 6 30.175 0.000 0.000
364 7 36.550 0.000 0.000
365 6 37.825 0.000 0.000
366 30 42.500 8.500 0.000
367 7 39.950 8.500 0.000
368 6 38.675 8.500 0.000
369 7 45.050 8.500 0.000
370 6 46.325 8.500 0.000
371 30 42.500 0.000 8.500
372 7 39.950 0.000 8.500
373 6 38.675 0.000 8.500
374 7 45.050 0.000 8.500
375 6 46.325 0.000 8.500
376 30 34.000 8.500 8.500
377 7 31.450 8.500 8.500
378 6 30.175 8.500 8.500
379 7 36.550 8.500 8.500
380 6 37.825 8.500 8.500
381 30 34.000 0.000 17.000
382 7 31.450 0.000 17.000
383 6 30.175 0.000 17.000
384 7 36.550 0.000 17.000
385 6 37.825 0.000 17.000
386 30 42.500 8.500 17.000
387 7 39.950 8.500 17.000
388 6 38.675 8.500 17.000
389 7 45.050 8.500 17.000
390 6 46.325 8.500 17.000
391 30 42.500 0.000 25.500
392 7 39.950 0.000 25.500
393 6 38.675 0.000 25.500
394 7 45.050 0.000 25.500
395 6 46.325 0.000 25.500
396 30 34.000 8.500 25.500
397 7 31.450 8.500 25.500
398 6 30.175 8.500 25.500
399 7 36.550 8.500 25.500
400 6 37.825 8.500 25.500
401 30 34.000 0.000 34.000
402 7 31.450 0.000 34.000
403 6 30.175 0.000 34.000
404 7 36.550 0.000 34.000
405 6 37.825 0.000 34.000
406 30 42.500 8.500 34.000
407 7 39.950 8.500 34.000
408 6 38.675 8.500 34.000
409 7 45.050 8.500 34.000
410 6 46.325 8.500 34.000
411 30 42.500 0.000 42.500
412 7 39.950 0.000 42.500
413 6 38.675 0.000 42.500
414 7 45.050 0.000 42.500
415 6 46.325 0.000 42.500
416 30 34.000 8.500 42.500
417 7 31.450 8.500 42.500
418 6 30.175 8.500 42.500
419 7 36.550 8.500 42.500
420 6 37.825 8.500 42.500
421 30 34.000 17.000 0.000
422 7 31.450 17.000 0.000
423 6 30.175 17.000 0.000
424 7 36.550 17.000 0.000
425 6 37.825 17.000 0.000
426 30 42.500 25.500 0.000
427 7 39.950 25.500 0.000
428 6 38.675 25.500 0.000
429 7 45.050 25.500 0.000
430 6 46.325 25.500 0.000
431 30 42.500 17.000 8.500
432 7 39.950 17.000 8.500
433 6 38.675 17.000 8.500
434 7 45.050 17.000 8.500
435 6 46.325 17.000 8.500
436 30 34.000 25.500 8.500
437 7 31.450 25.500 8.500
438 6 30.175 25.500 8.500
439 7 36.550 25.500 8.500
440 6 37.825 25.500 8.500
441 30 34.000 17.000 17.000
442 7 31.450 17.000 17.000
443 6 30.175 17.000 17.000
444 7 36.550 17.000 17.000
445 6 37.825 17.000 17.000
446 30 42.500 25.500 17.000
447 7 39.950 25.500 17.000
448 6 38.675 25.500 17.000
449 7 45.050 25.500 17.000
450 6 46.325 25.500 17.000
451 30 42.500 17.000 25.500
452 7 39.950 17.000 25.500
453 6 38.675 17.000 25.500
454 7 45.050 17.000 25.500
455 6 46.325 17.000 25.500
456 30 34.000 25.500 25.500
457 7 31.450 25.500 25.500
458 6 30.175 25.500 25.500
459 7 36.550 25.500 25.500
460 6 37.825 25.500 25.500
461 30 34.000 17.000 34.000
462 7 31.450 17.000 34.000
463 6 30.175 17.000 34.000
464 7 36.550 17.000 34.000
465 6 37.825 17.000 34.000
466 30 42.500 25.500 34.000
467 7 39.950 25.500 34.000
468 6 38.675 25.500 34.000
469 7 45.050 25.500 34.000
470 6 46.325 25.500 34.000
471 30 42.500 17.000 42.500
472 7 39.950 17.000 42.500
473 6 38.675 17.000 42.500
474 7 45.050 17.000 42.500
475 6 46.325 17.000 42.500
476 30 34.000 25.500 42.500
477 7 31.450 25.500 42.500
478 6 30.175 25.500 42.500
479 7 36.550 25.500 42.500
480 6 37.825 25.500 42.500
481 30 34.000 34.000 0.000
482 7 31.450 34.000 0.000
483 6 30.175 34.000 0.000
484 7 36.550 34.000 0.000
485 6 37.825 34.000 0.000
486 30 42.500 42.500 0.000
487 7 39.950 42.500 0.000
488 6 38.675 42.500 0.000
489 7 45.050 42.500 0.000
490 6 46.325 42.500 0.000
491 30 42.500 34.000 8.500
492 7 39.950 34.000 8.500
493 6 38.675 34.000 8.500
494 7 45.050 34.000 8.500
495 6 46.325 34.000 8.500
496 30 34.000 42.500 8.500
497 7 31.450 42.500 8.500
498 6 30.175 42.500 8.500
499 7 36.550 42.500 8.500
500 6 37.825 42.500 8.500
501 30 34.000 34.000 17.000
502 7 31.450 34.000 17.000
503 6 30.175 34.000 17.000
504 7 36.550 34.000 17.000
505 6 37.825 34.000 17.000
506 30 42.500 42.500 17.000
507 7 39.950 42.500 17.000
508 6 38.675 42.500 17.000
509 7 45.050 42.500 17.000
510 6 46.325 42.500 17.000
511 30 42.500 34.000 25.500
512 7 39.950 34.000 25.500
513 6 38.675 34.000 25.500
514 7 45.050 34.000 25.500
515 6 46.325 34.000 25.500
516 30 34.000 42.500 25.500
517 7 31.450 42.500 25.500
518 6 30.175 42.500 25.500
519 7 36.550 42.500 25.500
520 6 37.825 42.500 25.500
521 30 34.000 34.000 34.000
522 7 31.450 34.000 34.000
523 6 30.175 34.000 34.000
524 7 36.550 34.000 34.000
525 6 37.825 34.000 34.000
526 30 42.500 42.500 34.000
527 7 39.950 42.500 34.000
528 6 38.675 42.500 34.000
529 7 45.050 42.500 34.000
530 6 46.325 42.500 34.000
531 30 42.500 34.000 42.500
532 7 39.950 34.000 42.500
533 6 38.675 34.000 42.500
534 7 45.050 34.000 42.500
535 6 46.325 34.000 42.500
536 30 34.000 42.500 42.500
537 7 31.450 42.500 42.500
538 6 30.175 42.500 42.500
539 7 36.550 42.500 42.500
540 6 37.825 42.500 42.500
ITEM: TIMESTEP
100
ITEM: NUMBER OF ATOMS
540
ITEM: BOX BOUNDS pp pp pp
0.0 51.0
0.0 51.0
0.0 51.0
ITEM: ATOMS id type x y z
1 30 0.000 0.000 0.000
2 7 -2.550 -0.013 0.000
3 6 -3.825 -0.019 0.000
4 7 2.550 0.013 0.000
5 6 3.825 0.019 0.000
6 30 8.500 8.500 0.000
7 7 5.950 8.487 0.000
8 6 4.675 8.481 0.000
9 7 11.050 8.513 0.000
10 6 12.325 8.519 0.000
11 30 8.500 0.000 8.500
12 7 5.950 -0.013 8.500
13 6 4.675 -0.019 8.500
14 7 11.050 0.013 8.500
15 6 12.325 0.019 8.500
16 30 0.000 8.500 8.500
17 7 -2.550 8.487 8.500
18 6 -3.825 8.481 8.500
19 7 2.550 8.513 8.500
20 6 3.825 8.519 8.500
21 30 0.000 0.000 17.000
22 7 -2.550 -0.013 17.000
23 6 -3.825 -0.019 17.000
24 7 2.550 0.013 17.000
25 6 3.825 0.019 17.000
26 30 8.500 8.500 17.000
27 7 5.950 8.487 17.000
28 6 4.675 8.481 17.000
29 7 11.050 8.513 17.000
30 6 12.325 8.519 17.000
31 30 8.500 0.000 25.500
32 7 5.950 -0.013 25.500
33 6 4.675 -0.019 25.500
34 7 11.050 0.013 25.500
35 6 12.325 0.019 25.500
36 30 0.000 8.500 25.500
37 7 -2.550 8.487 25.500
38 6 -3.825 8.481 25.500
39 7 2.550 8.513 25.500
40 6 3.825 8.519 25.500
41 30 0.000 0.000 34.000
42 7 -2.550 -0.013 34.000
43 6 -3.825 -0.019 34.000
44 7 2.550 0.013 34.000
45 6 3.825 0.019 34.000
46 30 8.500 8.500 34.000
47 7 5.950 8.487 34.000
48 6 4.675 8.481 34.000
49 7 11.050 8.513 34.000
50 6 12.325 8.519 34.000
51 30 8.500 0.000 42.500
52 7 5.950 -0.013 42.500
53 6 4.675 -0.019 42.500
54 7 11.050 0.013 42.500
55 6 12.325 0.019 42.500
56 30 0.000 8.500 42.500
57 7 -2.550 8.487 42.500
58 6 -3.825 8.481 42.500
59 7 2.550 8.513 42.500
60 6 3.825 8.519 42.500
61 30 0.000 17.000 0.000
62 7 -2.550 16.987 0.000
63 6 -3.825 16.981 0.000
64 7 2.550 17.013 0.000
65 6 3.825 17.019 0.000
66 30 8.500 25.500 0.000
67 7 5.950 25.487 0.000
68 6 4.675 25.481 0.000
69 7 11.050 25.513 0.000
70 6 12.325 25.519 0.000
71 30 8.500 17.000 8.500
72 7 5.950 16.987 8.500
73 6 4.675 16.981 8.500
74 7 11.050 17.013 8.500
75 6 12.325 17.019 8.500
76 30 0.000 25.500 8.500
77 7 -2.550 25.487 8.500
78 6 -3.825 25.481 8.500
79 7 2.550 25.513 8.500
80 6 3.825 25.519 8.500
81 30 0.000 17.000 17.000
82 7 -2.550 16.987 17.000
83 6 -3.825 16.981 17.000
84 7 2.550 17.013 17.000
85 6 3.825 17.019 17.000
86 30 8.500 25.500 17.000
87 7 5.950 25.487 17.000
88 6 4.675 25.481 17.000
89 7 11.050 25.513 17.000
90 6 12.325 25.519 17.000
91 30 8.500 17.000 25.500
92 7 5.950 16.987 25.500
93 6 4.675 16.981 25.500
94 7 11.050 17.013 25.500
95 6 12.325 17.019 25.500
96 30 0.000 25.500 25.500
97 7 -2.550 25.487 25.500
98 6 -3.825 25.481 25.500
99 7 2.550 25.513 25.500
100 6 3.825 25.519 25.500
101 30 0.000 17.000 34.000
102 7 -2.550 16.987 34.000
103 6 -3.825 16.981 34.000
104 7 2.550 17.013 34.000
105 6 3.825 17.019 34.000
106 30 8.500 25.500 34.000
107 7 5.950 25.487 34.000
108 6 4.675 25.481 34.000
109 7 11.050 25.513 34.000
110 6 12.325 25.519 34.000
111 30 8.500 17.000 42.500
112 7 5.950 16.987 42.500
113 6 4.675 16.981 42.500
114 7 11.050 17.013 42.500
115 6 12.325 17.019 42.500
116 30 0.000 25.500 42.500
117 7 -2.550 25.487 42.500
118 6 -3.825 25.481 42.500
119 7 2.550 25.513 42.500
120 6 3.825 25.519 42.500
121 30 0.000 34.000 0.000
122 7 -2.550 33.987 0.000
123 6 -3.825 33.981 0.000
124 7 2.550 34.013 0.000
125 6 3.825 34.019 0.000
126 30 8.500 42.500 0.000
127 7 5.950 42.487 0.000
128 6 4.675 42.481 0.000
129 7 11.050 42.513 0.000
130 6 12.325 42.519 0.000
131 30 8.500 34.000 8.500
132 7 5.950 33.987 8.500
133 6 4.675 33.981 8.500
134 7 11.050 34.013 8.500
135 6 12.325 34.019 8.500
136 30 0.000 42.500 8.500
137 7 -2.550 42.487 8.500
138 6 -3.825 42.481 8.500
139 7 2.550 42.513 8.500
140 6 3.825 42.519 8.500
141 30 0.000 34.000 17.000
142 7 -2.550 33.987 17.000
143 6 -3.825 33.981 17.000
144 7 2.550 34.013 17.000
145 6 3.825 34.019 17.000
146 30 8.500 42.500 17.000
147 7 5.950 42.487 17.000
148 6 4.675 42.481 17.000
149 7 11.050 42.513 17.000
150 6 12.325 42.519 17.000
151 30 8.500 34.000 25.500
152 7 5.950 33.987 25.500
153 6 4.675 33.981 25.500
154 7 11.050 34.013 25.500
155 6 12.325 34.019 25.500
156 30 0.000 42.500 25.500
157 7 -2.550 42.487 25.500
158 6 -3.825 42.481 25.500
159 7 2.550 42.513 25.500
160 6 3.825 42.519 25.500
161 30 0.000 34.000 34.000
162 7 -2.550 33.987 34.000
163 6 -3.825 33.981 34.000
164 7 2.550 34.013 34.000
165 6 3.825 34.019 34.000
166 30 8.500 42.500 34.000
167 7 5.950 42.487 34.000
168 6 4.675 42.481 34.000
169 7 11.050 42.513 34.000
170 6 12.325 42.519 34.000
171 30 8.500 34.000 42.500
172 7 5.950 33.987 42.500
173 6 4.675 33.981 42.500
174 7 11.050 34.013 42.500
175 6 12.325 34.019 42.500
176 30 0.000 42.500 42.500
177 7 -2.550 42.487 42.500
178 6 -3.825 42.481 42.500
179 7 2.550 42.513 42.500
180 6 3.825 42.519 42.500
181 30 17.000 0.000 0.000
182 7 14.450 -0.013 0.000
183 6 13.175 -0.019 0.000
184 7 19.550 0.013 0.000
185 6 20.825 0.019 0.000
186 30 25.500 8.500 0.000
187 7 22.950 8.487 0.000
188 6 21.675 8.481 0.000
189 7 28.050 8.513 0.000
190 6 29.325 8.519 0.000
191 30 25.500 0.000 8.500
192 7 22.950 -0.013 8.500
193 6 21.675 -0.019 8.500
194 7 28.050 0.013 8.500
195 6 29.325 0.019 8.500
196 30 17.000 8.500 8.500
197 7 14.450 8.487 8.500
198 6 13.175 8.481 8.500
199 7 19.550 8.513 8.500
200 6 20.825 8.519 8.500
201 30 17.000 0.000 17.000
202 7 14.450 -0.013 17.000
203 6 13.175 -0.019 17.000
204 7 19.550 0.013 17.000
205 6 20.825 0.019 17.000
206 30 25.500 8.500 17.000
207 7 22.950 8.487 17.000
208 6 21.675 8.481 17.000
209 7 28.050 8.513 17.000
210 6 29.325 8.519 17.000
211 30 25.500 0.000 25.500
212 7 22.950 -0.013 25.500
213 6 21.675 -0.019 25.500
214 7 28.050 0.013 25.500
215 6 29.325 0.019 25.500
216 30 17.000 8.500 25.500
217 7 14.450 8.487 25.500
218 6 13.175 8.481 25.500
219 7 19.550 8.513 25.500
220 6 20.825 8.519 25.500
221 30 17.000 0.000 34.000
222 7 14.450 -0.013 34.000
223 6 13.175 -0.019 34.000
224 7 19.550 0.013 34.000
225 6 20.825 0.019 34.000
226 30 25.500 8.500 34.000
227 7 22.950 8.487 34.000
228 6 21.675 8.481 34.000
229 7 28.050 8.513 34.000
230 6 29.325 8.519 34.000
231 30 25.500 0.000 42.500
232 7 22.950 -0.013 42.500
233 6 21.675 -0.019 42.500
234 7 28.050 0.013 42.500
235 6 29.325 0.019 42.500
236 30 17.000 8.500 42.500
237 7 14.450 8.487 42.500
238 6 13.175 8.481 42.500
239 7 19.550 8.513 42.500
240 6 20.825 8.519 42.500
241 30 17.000 17.000 0.000
242 7 14.450 16.987 0.000
243 6 13.175 16.981 0.000
244 7 19.550 17.013 0.000
245 6 20.825 17.019 0.000
246 30 25.500 25.500 0.000
247 7 22.950 25.487 0.000
248 6 21.675 25.481 0.000
249 7 28.050 25.513 0.000
250 6 29.325 25.519 0.000
251 30 25.500 17.000 8.500
252 7 22.950 16.987 8.500
253 6 21.675 16.981 8.500
254 7 28.050 17.013 8.500
255 6 29.325 17.019 8.500
256 30 17.000 25.500 8.500
257 7 14.450 25.487 8.500
258 6 13.175 25.481 8.500
259 7 19.550 25.513 8.500
260 6 20.825 25.519 8.500
261 30 17.000 17.000 17.000
262 7 14.450 16.987 17.000
263 6 13.175 16.981 17.000
264 7 19.550 17.013 17.000
265 6 20.825 17.019 17.000
266 30 25.500 25.500 17.000
267 7 22.950 25.487 17.000
268 6 21.675 25.481 17.000
269 7 28.050 25.513 17.000
270 6 29.325 25.519 17.000
271 30 25.500 17.000 25.500
272 7 22.950 16.987 25.500
273 6 21.675 16.981 25.500
274 7 28.050 17.013 25.500
275 6 29.325 17.019 25.500
276 30 17.000 25.500 25.500
277 7 14.450 25.487 25.500
278 6 13.175 25.481 25.500
279 7 19.550 25.513 25.500
280 6 20.825 25.519 25.500
281 30 17.000 17.000 34.000
282 7 14.450 16.987 34.000
283 6 13.175 16.981 34.000
284 7 19.550 17.013 34.000
285 6 20.825 17.019 34.000
286 30 25.500 25.500 34.000
287 7 22.950 25.487 34.000
288 6 21.675 25.481 34.000
289 7 28.050 25.513 34.000
290 6 29.325 25.519 34.000
291 30 25.500 17.000 42.500
292 7 22.950 16.987 42.500
293 6 21.675 16.981 42.500
294 7 28.050 17.013 42.500
295 6 29.325 17.019 42.500
296 30 17.000 25.500 42.500
297 7 14.450 25.487 42.500
298 6 13.175 25.481 42.500
299 7 19.550 25.513 42.500
300 6 20.825 25.519 42.500
301 30 17.000 34.000 0.000
302 7 14.450 33.987 0.000
303 6 13.175 33.981 0.000
304 7 19.550 34.013 0.000
305 6 20.825 34.019 0.000
306 30 25.500 42.500 0.000
307 7 22.950 42.487 0.000
308 6 21.675 42.481 0.000
309 7 28.050 42.513 0.000
310 6 29.325 42.519 0.000
311 30 25.500 34.000 8.500
312 7 22.950 33.987 8.500
313 6 21.675 33.981 8.500
314 7 28.050 34.013 8.500
315 6 29.325 34.019 8.500
316 30 17.000 42.500 8.500
317 7 14.450 42.487 8.500
318 6 13.175 42.481 8.500
319 7 19.550 42.513 8.500
320 6 20.825 42.519 8.500
321 30 17.000 34.000 17.000
322 7 14.450 33.987 17.000
323 6 13.175 33.981 17.000
324 7 19.550 34.013 17.000
325 6 20.825 34.019 17.000
326 30 25.500 42.500 17.000
327 7 22.950 42.487 17.000
328 6 21.675 42.481 17.000
329 7 28.050 42.513 17.000
330 6 29.325 42.519 17.000
331 30 25.500 34.000 25.500
332 7 22.950 33.987 25.500
333 6 21.675 33.981 25.500
334 7 28.050 34.013 25.500
335 6 29.325 34.019 25.500
336 30 17.000 42.500 25.500
337 7 14.450 42.487 25.500
338 6 13.175 42.481 25.500
339 7 19.550 42.513 25.500
340 6 20.825 42.519 25.500
341 30 17.000 34.000 34.000
342 7 14.450 33.987 34.000
343 6 13.175 33.981 34.000
344 7 19.550 34.013 34.000
345 6 20.825 34.019 34.000
346 30 25.500 42.500 34.000
347 7 22.950 42.487 34.000
348 6 21.675 42.481 34.000
349 7 28.050 42.513 34.000
350 6 29.325 42.519 34.000
351 30 25.500 34.000 42.500
352 7 22.950 33.987 42.500
353 6 21.675 33.981 42.500
354 7 28.050 34.013 42.500
355 6 29.325 34.019 42.500
356 30 17.000 42.500 42.500
357 7 14.450 42.487 42.500
358 6 13.175 42.481 42.500
359 7 19.550 42.513 42.500
360 6 20.825 42.519 42.500
361 30 34.000 0.000 0.000
362 7 31.450 -0.013 0.000
363 6 30.175 -0.019 0.000
364 7 36.550 0.013 0.000
365 6 37.825 0.019 0.000
366 30 42.500 8.500 0.000
367 7 39.950 8.487 0.000
368 6 38.675 8.481 0.000
369 7 45.050 8.513 0.000
370 6 46.325 8.519 0.000
371 30 42.500 0.000 8.500
372 7 39.950 -0.013 8.500
373 6 38.675 -0.019 8.500
374 7 45.050 0.013 8.500
375 6 46.325 0.019 8.500
376 30 34.000 8.500 8.500
377 7 31.450 8.487 8.500
378 6 30.175 8.481 8.500
379 7 36.550 8.513 8.500
380 6 37.825 8.519 8.500
381 30 34.000 0.000 17.000
382 7 31.450 -0.013 17.000
383 6 30.175 -0.019 17.000
384 7 36.550 0.013 17.000
385 6 37.825 0.019 17.000
386 30 42.500 8.500 17.000
387 7 39.950 8.487 17.000
388 6 38.675 8.481 17.000
389 7 45.050 8.513 17.000
390 6 46.325 8.519 17.000
391 30 42.500 0.000 25.500
392 7 39.950 -0.013 25.500
393 6 38.675 -0.019 25.500
394 7 45.050 0.013 25.500
395 6 46.325 0.019 25.500
396 30 34.000 8.500 25.500
397 7 31.450 8.487 25.500
398 6 30.175 8.481 25.500
399 7 36.550 8.513 25.500
400 6 37.825 8.519 25.500
401 30 34.000 0.000 34.000
402 7 31.450 -0.013 34.000
403 6 30.175 -0.019 34.000
404 7 36.550 0.013 34.000
405 6 37.825 0.019 34.000
406 30 42.500 8.500 34.000
407 7 39.950 8.487 34.000
408 6 38.675 8.481 34.000
409 7 45.050 8.513 34.000
410 6 46.325 8.519 34.000
411 30 42.500 0.000 42.500
412 7 39.950 -0.013 42.500
413 6 38.675 -0.019 42.500
414 7 45.050 0.013 42.500
415 6 46.325 0.019 42.500
416 30 34.000 8.500 42.500
417 7 31.450 8.487 42.500
418 6 30.175 8.481 42.500
419 7 36.550 8.513 42.500
420 6 37.825 8.519 42.500
421 30 34.000 17.000 0.000
422 7 31.450 16.987 0.000
423 6 30.175 16.981 0.000
424 7 36.550 17.013 0.000
425 6 37.825 17.019 0.000
426 30 42.500 25.500 0.000
427 7 39.950 25.487 0.000
428 6 38.675 25.481 0.000
429 7 45.050 25.513 0.000
430 6 46.325 25.519 0.000
431 30 42.500 17.000 8.500
432 7 39.950 16.987 8.500
433 6 38.675 16.981 8.500
434 7 45.050 17.013 8.500
435 6 46.325 17.019 8.500
436 30 34.000 25.500 8.500
437 7 31.450 25.487 8.500
438 6 30.175 25.481 8.500
439 7 36.550 25.513 8.500
440 6 37.825 25.519 8.500
441 30 34.000 17.000 17.000
442 7 31.450 16.987 17.000
443 6 30.175 16.981 17.000
444 7 36.550 17.013 17.000
445 6 37.825 17.019 17.000
446 30 42.500 25.500 17.000
447 7 39.950 25.487 17.000
448 6 38.675 25.481 17.000
449 7 45.050 25.513 17.000
450 6 46.325 25.519 17.000
451 30 42.500 17.000 25.500
452 7 39.950 16.987 25.500
453 6 38.675 16.981 25.500
454 7 45.050 17.013 25.500
455 6 46.325 17.019 25.500
456 30 34.000 25.500 25.500
457 7 31.450 25.487 25.500
458 6 30.175 25.481 25.500
459 7 36.550 25.513 25.500
460 6 37.825 25.519 25.500
461 30 34.000 17.000 34.000
462 7 31.450 16.987 34.000
463 6 30.175 16.981 34.000
464 7 36.550 17.013 34.000
465 6 37.825 17.019 34.000
466 30 42.500 25.500 34.000
467 7 39.950 25.487 34.000
468 6 38.675 25.481 34.000
469 7 45.050 25.513 34.000
470 6 46.325 25.519 34.000
471 30 42.500 17.000 42.500
472 7 39.950 16.987 42.500
473 6 38.675 16.981 42.500
474 7 45.050 17.013 42.500
475 6 46.325 17.019 42.500
476 30 34.000 25.500 42.500
477 7 31.450 25.487 42.500
478 6 30.175 25.481 42.500
479 7 36.550 25.513 42.500
480 6 37.825 25.519 42.500
481 30 34.000 34.000 0.000
482 7 31.450 33.987 0.000
483 6 30.175 33.981 0.000
484 7 36.550 34.013 0.000
485 6 37.825 34.019 0.000
486 30 42.500 42.500 0.000
487 7 39.950 42.487 0.000
488 6 38.675 42.481 0.000
489 7 45.050 42.513 0.000
490 6 46.325 42.519 0.000
491 30 42.500 34.000 8.500
492 7 39.950 33.987 8.500
493 6 38.675 33.981 8.500
494 7 45.050 34.013 8.500
495 6 46.325 34.019 8.500
496 30 34.000 42.500 8.500
497 7 31.450 42.487 8.500
498 6 30.175 42.481 8.500
499 7 36.550 42.513 8.500
500 6 37.825 42.519 8.500
501 30 34.000 34.000 17.000
502 7 31.450 33.987 17.000
503 6 30.175 33.981 17.000
504 7 36.550 34.013 17.000
505 6 37.825 34.019 17.000
506 30 42.500 42.500 17.000
507 7 39.950 42.487 17.000
508 6 38.675 42.481 17.000
509 7 45.050 42.513 17.000
510 6 46.325 42.519 17.000
511 30 42.500 34.000 25.500
512 7 39.950 33.987 25.500
513 6 38.675 33.981 25.500
514 7 45.050 34.013 25.500
515 6 46.325 34.019 25.500
516 30 34.000 42.500 25.500
517 7 31.450 42.487 25.500
518 6 30.175 42.481 25.500
519 7 36.550 42.513 25.500
520 6 37.825 42.519 25.500
521 30 34.000 34.000 34.000
522 7 31.450 33.987 34.000
523 6 30.175 33.981 34.000
524 7 36.550 34.013 34.000
525 6 37.825 34.019 34.000
526 30 42.500 42.500 34.000
527 7 39.950 42.487 34.000
528 6 38.675 42.481 34.000
529 7 45.050 42.513 34.000
530 6 46.325 42.519 34.000
531 30 42.500 34.000 42.500
532 7 39.950 33.987 42.500
533 6 38.675 33.981 42.500
534 7 45.050 34.013 42.500
535 6 46.325 34.019 42.500
536 30 34.000 42.500 42.500
537 7 31.450 42.487 42.500
538 6 30.175 42.481 42.500
539 7 36.550 42.513 42.500
540 6 37.825 42.519 42.500
ITEM: TIMESTEP
200
ITEM: NUMBER OF ATOMS
540
ITEM: BOX BOUNDS pp pp pp
0.0 51.0
0.0 51.0
0.0 51.0
ITEM: ATOMS id type x y z
1 30 0.000 0.000 0.000
2 7 -2.550 -0.026 0.000
3 6 -3.825 -0.039 0.000
4 7 2.550 0.026 0.000
5 6 3.825 0.039 0.000
6 30 8.500 8.500 0.000
7 7 5.950 8.474 0.000
8 6 4.675 8.461 0.000
9 7 11.050 8.526 0.000
10 6 12.325 8.539 0.000
11 30 8.500 0.000 8.500
12 7 5.950 -0.026 8.500
13 6 4.675 -0.039 8.500
14 7 11.050 0.026 8.500
15 6 12.325 0.039 8.500
16 30 0.000 8.500 8.500
17 7 -2.550 8.474 8.500
18 6 -3.825 8.461 8.500
19 7 2.550 8.526 8.500
20 6 3.825 8.539 8.500
21 30 0.000 0.000 17.000
22 7 -2.550 -0.026 17.000
23 6 -3.825 -0.039 17.000
24 7 2.550 0.026 17.000
25 6 3.825 0.039 17.000
26 30 8.500 8.500 17.000
27 7 5.950 8.474 17.000
28 6 4.675 8.461 17.000
29 7 11.050 8.526 17.000
30 6 12.325 8.539 17.000
31 30 8.500 0.000 25.500
32 7 5.950 -0.026 25.500
33 6 4.675 -0.039 25.500
34 7 11.050 0.026 25.500
35 6 12.325 0.039 25.500
36 30 0.000 8.500 25.500
37 7 -2.550 8.474 25.500
38 6 -3.825 8.461 25.500
39 7 2.550 8.526 25.500
40 6 3.825 8.539 25.500
41 30 0.000 0.000 34.000
42 7 -2.550 -0.026 34.000
43 6 -3.825 -0.039 34.000
44 7 2.550 0.026 34.000
45 6 3.825 0.039 34.000
46 30 8.500 8.500 34.000
47 7 5.950 8.474 34.000
48 6 4.675 8.461 34.000
49 7 11.050 8.526 34.000
50 6 12.325 8.539 34.000
51 30 8.500 0.000 42.500
52 7 5.950 -0.026 42.500
53 6 4.675 -0.039 42.500
54 7 11.050 0.026 42.500
55 6 12.325 0.039 42.500
56 30 0.000 8.500 42.500