ITEM: TIMESTEP
1
ITEM: NUMBER OF ATOMS
4096
ITEM: BOX BOUNDS pp pp pp
0.0 48.0
0.0 48.0
0.0 48.0
ITEM: ATOMS id type x y z
1 51 0.046 -0.126 0.045
2 52 2.837 3.030 2.914
3 51 3.058 3.009 -0.036
4 52 -0.047 -0.147 3.151
5 32 2.891 0.199 2.980
6 52 -0.032 3.037 -0.072
7 51 0.019 3.039 3.057
8 52 2.894 -0.156 -0.009
9 32 -0.175 -0.049 6.000
10 52 2.843 3.028 9.136
11 32 2.952 2.976 5.924
12 52 -0.174 0.001 8.843
13 51 3.064 0.001 8.960
14 52 -0.077 2.919 5.803
15 51 0.018 2.885 9.118
16 52 2.962 0.057 5.871
17 32 0.140 0.035 11.856
18 52 2.973 3.001 15.008
19 32 2.957 3.063 11.811
20 52 -0.111 0.009 14.951
21 51 3.029 0.080 15.189
22 52 -0.057 2.915 11.985
23 51 -0.025 3.079 14.854
24 52 3.151 -0.030 12.274
25 32 0.029 -0.074 17.983
26 52 3.169 3.007 20.882
27 51 2.905 2.974 18.038
28 52 -0.015 -0.048 20.961
29 51 2.994 0.079 21.101
30 52 -0.082 3.158 18.115
31 32 0.036 3.010 21.119
32 52 3.028 -0.027 17.991
33 32 0.047 -0.021 24.191
34 52 3.030 2.950 26.985
35 51 2.950 3.102 24.010
36 52 -0.104 0.154 27.087
37 32 3.025 0.062 26.981
38 52 0.056 2.815 23.806
39 32 0.094 3.033 27.104
40 52 2.931 0.049 24.205
41 32 0.151 -0.085 30.048
42 52 2.978 2.991 32.996
43 32 2.894 2.998 29.921
44 52 0.033 0.061 33.088
45 32 3.013 -0.063 32.937
46 52 0.021 3.078 29.810
47 32 0.054 3.026 33.014
48 52 3.042 0.112 30.072
49 51 0.148 -0.037 35.972
50 52 2.958 3.010 39.103
51 51 2.977 2.822 35.968
52 52 -0.089 0.088 38.922
53 32 3.243 0.085 39.016
54 52 0.093 2.950 35.949
55 51 0.086 2.896 38.948
56 52 3.204 0.009 36.042
57 51 -0.088 -0.053 41.933
58 52 2.850 3.069 44.875
59 51 3.014 3.032 42.154
60 52 0.103 0.045 44.957
61 51 3.088 -0.049 45.098
62 52 -0.068 2.989 42.135
63 51 0.054 3.007 44.946
64 52 2.982 0.115 42.045
65 32 0.007 6.203 0.109
66 52 2.951 8.934 3.005
67 51 2.986 8.968 -0.041
68 52 0.128 6.001 3.061
69 51 2.998 5.984 2.954
70 52 -0.194 8.950 0.166
71 51 -0.031 8.982 2.926
72 52 3.017 6.156 -0.009
73 51 0.046 5.941 5.945
74 52 3.086 8.894 8.998
75 51 3.081 9.034 5.992
76 52 -0.082 5.959 9.092
77 32 2.915 6.052 8.997
78 52 -0.078 9.074 6.115
79 51 0.155 9.043 9.048
80 52 2.939 6.004 5.994
81 51 -0.018 5.971 12.197
82 52 3.125 8.865 14.974
83 32 2.990 8.915 11.724
84 52 0.082 5.985 15.100
85 51 3.078 5.819 15.197
86 52 -0.228 8.828 11.944
87 32 0.073 8.914 14.977
88 52 3.030 6.069 12.108
89 32 -0.017 6.051 18.059
90 52 2.813 8.997 21.124
91 51 2.833 9.243 17.989
92 52 0.007 5.830 21.088
93 51 3.034 6.076 21.107
94 52 0.038 9.157 18.096
95 51 -0.009 9.009 21.074
96 52 3.022 6.069 17.974
97 32 0.143 5.872 24.092
98 52 3.043 8.857 26.999
99 51 3.136 9.191 23.884
100 52 0.079 5.963 26.887
101 32 3.046 5.854 27.062
102 52 -0.139 8.940 23.923
103 51 0.082 8.944 27.101
104 52 2.873 6.035 23.938
105 51 -0.022 5.963 29.991
106 52 3.061 8.937 33.021
107 51 3.018 8.953 30.123
108 52 0.244 6.002 33.025
109 51 2.994 6.026 33.117
110 52 0.060 8.937 30.074
111 51 0.003 9.005 32.864
112 52 2.940 6.028 29.958
113 32 0.085 5.873 35.867
114 52 2.854 8.877 39.006
115 32 3.097 8.983 35.946
116 52 0.167 6.235 38.964
117 51 3.136 5.912 38.771
118 52 -0.180 8.957 35.820
119 51 -0.158 8.963 38.870
120 52 3.058 5.865 35.958
121 32 0.028 6.092 41.961
122 52 3.003 9.060 44.914
123 32 3.030 9.061 42.000
124 52 0.039 6.088 45.138
125 32 2.928 6.023 45.036
126 52 0.013 8.949 42.031
127 51 -0.009 9.020 44.927
128 52 2.868 6.028 41.826
129 51 0.205 12.016 -0.002
130 52 2.990 14.979 2.820
131 32 3.155 15.132 -0.073
132 52 -0.060 11.951 2.973
133 32 2.893 12.047 3.003
134 52 -0.053 14.956 0.094
135 51 0.089 14.913 3.023
136 52 2.835 12.088 0.058
137 51 -0.034 11.813 6.181
138 52 2.965 14.895 9.007
139 32 3.040 14.971 5.900
140 52 -0.037 11.916 9.095
141 51 2.968 12.186 8.806
142 52 0.103 14.978 6.095
143 32 0.151 14.849 8.998
144 52 2.917 11.977 6.111
145 51 0.022 11.850 11.847
146 52 3.062 14.957 14.917
147 51 2.981 14.803 11.928
148 52 -0.115 12.139 15.126
149 32 2.995 11.800 14.858
150 52 -0.057 15.058 12.074
151 32 0.038 15.263 15.002
152 52 2.994 12.004 11.994
153 32 0.114 11.909 17.970
154 52 3.010 15.008 21.009
155 32 3.039 14.984 18.062
156 52 0.190 11.896 21.109
157 32 3.098 12.070 21.017
158 52 -0.034 14.854 17.998
159 51 -0.202 15.016 21.018
160 52 3.095 12.233 17.964
161 32 0.091 12.062 24.042
162 52 2.975 14.919 27.050
163 51 2.940 14.925 24.126
164 52 -0.079 11.967 26.913
165 32 3.090 11.903 26.865
166 52 -0.021 15.026 24.047
167 51 -0.031 14.903 26.779
168 52 3.097 11.921 23.971
169 32 0.027 12.043 30.019
170 52 3.161 14.893 33.174
171 51 3.036 14.957 29.963
172 52 0.145 12.100 33.128
173 51 3.004 11.919 33.035
174 52 0.161 15.072 30.225
175 51 0.043 15.003 33.060
176 52 3.129 11.967 29.808
177 51 -0.071 11.990 36.052
178 52 2.967 15.120 38.906
179 32 3.062 14.920 36.001
180 52 -0.030 12.095 39.069
181 32 2.895 11.857 39.013
182 52 -0.032 14.941 36.004
183 51 0.137 15.009 38.910
184 52 2.918 12.134 36.109
185 51 -0.045 11.994 42.067
186 52 3.047 14.993 44.824
187 51 3.121 14.914 41.924
188 52 0.020 12.095 44.945
189 51 2.939 11.942 45.007
190 52 0.001 15.046 41.873
191 32 -0.015 15.018 45.080
192 52 2.974 12.012 42.007
193 32 -0.081 18.073 -0.095
194 52 3.005 20.917 3.079
195 51 3.148 21.095 0.136
196 52 -0.145 17.732 2.983
197 51 2.938 18.217 3.010
198 52 -0.028 20.926 0.122
199 32 0.009 20.801 3.097
200 52 2.856 18.007 -0.075
201 51 0.057 17.981 6.150
202 52 2.932 20.996 9.171
203 32 3.038 21.138 5.864
204 52 -0.051 18.022 9.013
205 51 2.856 18.101 8.906
206 52 0.018 20.790 5.914
207 51 0.044 21.004 9.107
208 52 2.977 18.043 5.979
209 51 0.195 17.887 11.806
210 52 3.103 20.966 15.063
211 51 3.024 20.915 12.136
212 52 0.096 18.125 15.276
213 32 2.984 18.080 14.720
214 52 -0.042 21.112 12.141
215 32 0.155 21.021 15.166
216 52 2.966 17.968 11.883
217 51 0.082 18.008 18.101
218 52 2.983 21.170 21.017
219 51 3.159 20.963 18.006
220 52 -0.152 18.079 21.103
221 32 3.028 18.095 20.950
222 52 0.031 21.160 18.003
223 51 0.017 20.895 20.869
224 52 2.936 18.090 18.217
225 32 -0.063 18.100 24.056
226 52 2.967 20.918 27.074
227 32 3.102 21.072 24.031
228 52 0.059 18.004 27.169
229 32 2.952 17.841 27.008
230 52 0.152 20.854 24.018
231 32 0.138 21.028 26.976
232 52 3.069 17.923 24.155
233 32 0.055 17.983 30.053
234 52 3.128 20.908 33.011
235 32 3.152 21.027 30.083
236 52 0.095 18.021 33.087
237 51 2.782 18.069 32.931
238 52 -0.080 21.111 30.147
239 32 -0.003 20.971 32.866
240 52 2.954 17.960 29.964
241 32 -0.081 18.110 36.008
242 52 2.828 20.956 39.012
243 51 2.917 20.905 36.210
244 52 0.024 17.956 39.100
245 51 2.934 18.031 38.994
246 52 -0.077 20.951 35.956
247 51 -0.015 20.895 38.959
248 52 3.233 18.034 36.084
249 32 -0.075 18.029 42.058
250 52 2.931 20.880 45.069
251 51 2.980 21.128 41.993
252 52 0.008 18.201 44.914
253 32 2.907 17.899 45.116
254 52 -0.143 20.850 42.139
255 32 -0.016 20.882 45.220
256 52 2.815 18.102 41.975
257 51 0.102 24.028 0.001
258 52 2.838 26.697 3.021
259 32 2.971 27.127 0.048
260 52 -0.284 23.911 3.059
261 51 3.080 23.965 2.988
262 52 0.100 26.981 -0.050
263 32 -0.176 27.025 3.021
264 52 2.957 24.097 -0.029
265 51 -0.047 23.815 6.063
266 52 2.942 26.949 9.074
267 32 2.887 27.049 5.966
268 52 -0.134 24.019 8.908
269 32 2.893 23.951 8.903
270 52 -0.003 26.925 6.037
271 51 0.135 26.982 9.114
272 52 3.001 23.950 6.085
273 51 0.132 23.906 11.854
274 52 3.072 27.067 14.863
275 32 2.970 26.906 11.916
276 52 0.013 23.783 15.020
277 51 3.206 24.063 15.081
278 52 -0.078 26.831 11.910
279 32 -0.066 27.127 15.010
280 52 3.002 24.060 12.189
281 51 0.089 24.002 18.037
282 52 3.039 26.825 21.046
283 51 2.846 26.978 18.075
284 52 -0.109 24.028 20.893
285 32 2.916 23.924 21.113
286 52 0.044 27.052 17.799
287 51 -0.055 26.899 20.914
288 52 2.952 24.135 18.081
289 32 0.124 24.180 24.074
290 52 2.848 26.912 26.994
291 32 3.077 26.955 23.967
292 52 0.045 24.092 26.815
293 51 2.992 23.944 27.140
294 52 0.053 26.992 23.966
295 32 -0.250 27.033 27.035
296 52 3.016 24.061 23.953
297 32 -0.188 23.893 30.102
298 52 2.789 27.069 33.066
299 32 3.010 27.023 29.901
300 52 -0.010 23.947 33.044
301 32 3.057 23.890 33.161
302 52 -0.143 26.910 30.022
303 32 0.079 27.079 33.067
304 52 2.979 24.053 30.132
305 51 -0.043 24.135 35.965
306 52 3.182 26.944 39.027
307 51 3.176 27.004 35.972
308 52 0.011 24.001 39.037
309 32 2.983 23.935 39.044
310 52 0.012 27.097 35.970
311 32 -0.068 27.130 38.812
312 52 3.015 23.918 36.158
313 51 -0.020 23.977 41.992
314 52 2.957 27.052 44.962
315 32 3.044 26.958 41.888
316 52 -0.065 23.949 44.957
317 32 2.890 24.001 44.909
318 52 -0.003 27.075 42.066
319 51 -0.091 26.955 45.102
320 52 3.067 24.155 42.004
321 32 0.089 30.005 0.009
322 52 2.989 32.837 2.954
323 51 3.087 33.019 0.167
324 52 -0.185 29.966 2.954
325 51 3.074 29.995 3.116
326 52 0.029 32.979 -0.002
327 32 0.112 32.956 3.121
328 52 2.944 29.972 0.067
329 32 0.038 30.059 6.028
330 52 2.944 33.128 8.997
331 51 3.091 33.065 5.860
332 52 -0.028 30.074 8.970
333 32 3.215 29.808 8.998
334 52 -0.015 33.070 6.008
335 51 -0.232 33.166 9.091
336 52 3.018 30.126 6.027
337 32 0.228 29.830 11.913
338 52 3.008 32.902 15.011
339 51 2.814 32.962 12.124
340 52 0.106 29.999 15.046
341 32 3.032 29.919 15.107
342 52 0.103 32.780 12.206
343 32 0.056 32.926 15.003
344 52 2.990 29.888 11.993
345 51 0.072 30.205 18.053
346 52 3.111 32.985 20.968
347 51 2.965 32.952 18.027
348 52 -0.072 29.866 20.790
349 51 2.994 30.007 20.948
350 52 -0.006 32.962 18.026
351 32 0.015 32.680 20.901
352 52 3.131 29.963 18.080
353 32 -0.180 29.921 24.026
354 52 3.027 32.841 26.876
355 32 3.030 33.025 24.189
356 52 0.071 30.017 26.968
357 32 3.079 29.979 26.936
358 52 -0.073 33.014 23.977
359 32 -0.053 33.058 26.986
360 52 3.039 30.023 23.950
361 51 -0.108 29.901 29.901
362 52 3.033 33.131 33.063
363 32 3.120 33.039 29.941
364 52 0.057 29.898 33.038
365 51 2.806 30.196 32.976
366 52 0.061 32.909 29.925
367 51 0.241 33.004 32.810
368 52 2.974 30.148 30.055
369 51 -0.069 29.931 36.134
370 52 2.920 32.930 39.034
371 51 2.818 33.052 36.075
372 52 -0.129 29.837 39.136
373 51 3.090 30.065 38.875
374 52 -0.009 32.969 36.020
375 32 -0.026 32.981 38.832
376 52 3.008 30.042 36.012
377 32 -0.067 29.930 42.158
378 52 3.007 32.979 45.043
379 51 2.954 32.941 42.007
380 52 0.104 30.001 44.873
381 51 2.964 30.158 44.857
382 52 -0.133 32.898 42.113
383 51 -0.048 32.985 45.046
384 52 2.871 30.084 42.008
385 51 -0.039 35.999 0.146
386 52 2.901 38.827 2.883
387 51 2.998 39.065 0.064
388 52 0.017 35.956 3.098
389 51 3.041 35.848 3.019
390 52 0.153 39.050 -0.091
391 32 -0.134 38.865 3.111
392 52 3.010 36.094 -0.026
393 51 0.062 35.965 5.904
394 52 3.105 38.912 9.156
395 32 3.157 38.832 5.900
396 52 -0.002 36.131 9.028
397 51 2.869 35.852 8.903
398 52 -0.057 38.809 6.054
399 32 -0.012 38.928 8.761
400 52 3.127 36.069 5.950
401 32 -0.043 36.066 11.931
402 52 2.863 38.905 15.002
403 51 3.092 39.032 12.166
404 52 0.065 36.068 14.900
405 32 3.137 36.101 15.043
406 52 -0.039 39.051 11.952
407 32 -0.030 38.894 14.843
408 52 2.979 35.984 11.810
409 51 0.043 35.950 18.138
410 52 3.074 38.994 21.118
411 32 2.972 38.905 17.890
412 52 -0.129 35.880 20.945
413 51 3.040 36.142 20.917
414 52 0.113 39.060 17.915
415 32 -0.041 39.092 21.064
416 52 3.113 36.064 17.847
417 51 0.050 35.879 23.964
418 52 3.006 38.940 26.982
419 32 3.058 38.982 23.972
420 52 -0.010 36.041 27.035
421 51 3.138 36.251 26.951
422 52 -0.024 38.868 23.906
423 32 0.063 39.033 26.890
424 52 2.894 35.899 23.981
425 51 -0.104 36.032 30.118
426 52 3.019 38.722 32.940
427 32 3.034 39.016 30.174
428 52 -0.152 36.049 33.043
429 51 3.112 35.981 32.832
430 52 0.046 38.896 29.977
431 51 0.068 38.952 32.954
432 52 2.952 36.035 29.909
433 51 0.069 35.883 36.098
434 52 3.007 38.892 39.080
435 51 2.892 38.891 35.886
436 52 -0.020 36.069 38.902
437 51 3.059 36.023 38.875
438 52 0.097 39.086 35.896
439 32 -0.118 38.967 38.850
440 52 3.090 36.127 36.038
441 32 0.046 35.948 41.976
442 52 2.852 38.915 44.964
443 32 3.021 39.087 41.975
444 52 -0.076 36.153 44.842
445 32 2.920 35.958 45.046
446 52 -0.116 39.191 41.995
447 32 0.073 38.923 45.065
448 52 3.047 36.078 41.818
449 51 0.176 41.971 0.049
450 52 2.939 44.946 2.977
451 32 2.910 45.108 0.003
452 52 0.057 42.032 2.951
453 32 2.905 41.938 3.091
454 52 -0.076 45.099 0.077
455 51 0.037 44.946 2.860
456 52 3.048 42.046 -0.117
457 51 0.075 41.974 5.910
458 52 3.192 45.005 9.038
459 32 3.037 44.987 6.167
460 52 -0.226 41.956 8.837
461 32 3.105 42.069 8.986
462 52 -0.242 45.136 6.104
463 51 -0.011 45.024 9.068
464 52 2.994 42.118 6.069
465 51 -0.056 41.984 12.118
466 52 2.986 45.041 14.964
467 51 3.042 45.010 11.743
468 52 -0.159 42.109 14.889
469 32 2.996 42.170 15.079
470 52 -0.081 44.909 12.052
471 51 -0.077 44.777 14.951
472 52 2.906 41.871 11.943
473 51 0.129 42.029 17.785
474 52 3.089 45.201 20.712
475 32 3.031 45.005 17.877
476 52 0.033 41.971 20.756
477 51 2.927 41.923 21.001
478 52 0.018 44.964 18.186
479 51 -0.110 45.076 20.811
480 52 3.108 42.020 18.033
481 32 0.070 41.915 23.860
482 52 3.025 45.064 26.807
483 51 3.071 45.067 24.106
484 52 0.187 41.934 26.944
485 51 3.064 41.955 26.953
486 52 0.002 45.105 23.889
487 51 0.076 45.079 27.016
488 52 3.189 42.009 23.918
489 32 0.030 41.956 30.073
490 52 2.972 44.903 33.065
491 51 2.958 45.153 30.004
492 52 0.057 42.129 32.970
493 32 2.898 41.997 32.866
494 52 -0.096 45.126 29.979
495 32 0.038 44.679 33.084
496 52 3.023 41.886 30.104
497 51 0.179 42.133 35.876
498 52 2.987 44.894 39.046
499 32 2.818 44.975 35.812
500 52 0.101 42.132 38.891
501 51 3.003 42.182 39.011
502 52 0.165 45.014 35.985
503 32 0.011 45.032 38.928
504 52 3.005 41.864 35.954
505 32 0.045 42.082 41.970
506 52 3.151 44.890 45.075
507 32 2.845 45.096 42.075
508 52 0.062 41.969 45.058
509 32 3.036 42.002 44.885
510 52 0.032 45.108 42.030
511 51 -0.254 45.084 45.037
512 52 3.153 42.024 42.100
513 51 5.938 0.046 -0.007
514 52 9.001 3.173 3.007
515 51 9.074 3.057 0.111
516 52 6.104 0.010 2.976
517 32 8.769 0.093 2.839
518 52 6.022 2.980 0.045
519 51 5.944 2.866 3.263
520 52 8.797 0.014 0.030
521 51 6.045 0.022 6.031
522 52 9.173 2.934 8.930
523 51 8.885 2.913 5.927
524 52 6.124 -0.176 9.001
525 51 8.985 0.066 8.901
526 52 5.975 3.062 6.048
527 51 5.984 2.927 8.976
528 52 8.966 -0.035 5.873
529 51 5.987 0.024 11.991
530 52 9.032 2.962 14.938
531 32 9.142 3.093 11.981
532 52 5.989 -0.259 15.171
533 32 9.119 -0.038 14.938
534 52 5.995 2.976 12.246
535 51 5.986 2.949 14.903
536 52 8.877 0.005 12.100
537 32 6.015 -0.032 18.008
538 52 8.900 2.869 20.891
539 32 9.260 2.982 17.830
540 52 6.175 -0.063 20.794
541 51 9.081 0.018 20.942
542 52 6.046 3.040 18.119
543 51 6.034 3.051 20.919
544 52 8.985 -0.149 17.983
545 32 5.921 -0.185 23.922
546 52 9.093 2.906 26.888
547 51 9.060 2.909 23.982
548 52 6.045 0.042 26.921
549 51 8.912 0.018 27.172
550 52 6.102 2.944 24.187
551 32 6.138 2.996 27.040
552 52 9.106 -0.167 24.158
553 32 5.914 -0.136 30.198
554 52 8.985 3.148 33.046
555 51 8.865 2.832 29.915
556 52 5.986 0.038 33.064
557 51 9.000 0.001 32.964
558 52 6.013 3.195 30.018
559 51 6.002 3.014 33.081
560 52 9.006 -0.041 30.120
561 32 6.007 -0.157 35.741
562 52 9.010 2.916 39.028
563 51 8.851 2.911 36.166
564 52 5.880 0.011 38.970
565 51 9.019 0.024 38.991
566 52 6.095 2.971 35.841
567 32 6.073 3.107 38.919
568 52 8.995 -0.132 35.848
569 32 5.861 -0.024 42.200
570 52 8.944 2.975 44.997
571 51 9.075 3.042 41.974
572 52 5.863 -0.099 45.334
573 51 8.975 -0.094 45.060
574 52 6.185 3.013 42.076
575 32 6.063 2.961 44.937
576 52 8.836 0.061 41.887
577 51 5.937 5.987 -0.166
578 52 8.982 8.921 2.905
579 51 9.005 9.079 0.179
580 52 6.059 5.916 2.860
581 51 8.957 6.044 2.934
582 52 6.023 9.115 -0.066
583 51 5.995 9.136 2.946
584 52 8.896 6.042 -0.070
585 51 5.808 5.972 6.009
586 52 8.931 8.901 8.969
587 32 8.891 8.982 6.095
588 52 6.131 5.969 8.873
589 32 8.871 5.929 9.143
590 52 6.014 8.970 5.951
591 51 5.987 9.004 8.894
592 52 8.870 5.956 5.970
593 51 6.212 5.987 11.799
594 52 9.026 9.033 14.981
595 51 9.217 8.955 11.954
596 52 6.035 5.823 14.811
597 51 8.937 5.843 15.179
598 52 5.759 8.962 12.121
599 32 6.079 9.043 15.044
600 52 8.971 5.992 12.147
601 51 6.097 5.866 17.930
602 52 9.121 9.029 20.913
603 51 9.232 8.846 18.052
604 52 6.094 5.998 21.060
605 51 8.974 5.845 21.107
606 52 5.987 9.070 17.755
607 32 6.246 9.084 20.832
608 52 8.949 5.984 18.049
609 51 6.199 5.971 23.910
610 52 8.831 9.017 26.922
611 51 9.185 9.023 24.055
612 52 5.782 5.964 26.983
613 32 9.207 6.081 27.041
614 52 6.073 9.150 23.856
615 32 5.912 8.993 26.971
616 52 8.959 6.145 23.905
617 32 5.928 5.766 30.061
618 52 8.954 8.852 32.912
619 32 9.067 9.092 29.949
620 52 6.184 6.004 32.894
621 51 8.942 6.026 33.062
622 52 5.945 8.963 30.100
623 32 5.949 9.243 33.200
624 52 9.039 6.005 30.021
625 32 5.977 5.946 35.997
626 52 9.148 8.844 38.908
627 32 8.962 9.159 36.080
628 52 5.980 5.922 39.013
629 51 8.937 5.779 38.925
630 52 5.865 8.879 36.020
631 32 5.945 8.957 38.957
632 52 8.966 6.183 35.963
633 51 5.915 6.028 42.069
634 52 9.206 9.084 44.922
635 51 9.061 9.016 42.114
636 52 6.045 5.971 44.898
637 32 9.022 5.958 45.017
638 52 5.970 9.157 41.997
639 51 6.082 8.987 44.967
640 52 9.068 6.071 42.000
641 32 5.964 11.879 0.030
642 52 9.010 15.159 2.971
643 51 8.977 14.760 0.001
644 52 6.111 11.944 2.788
645 32 9.212 11.947 3.246
646 52 5.984 14.920 -0.045
647 32 6.020 14.931 2.890
648 52 9.017 11.933 -0.067
649 32 6.276 11.992 5.928
650 52 8.876 14.985 9.117
651 32 9.038 14.930 6.017
652 52 6.032 11.668 9.193
653 32 9.060 12.018 9.066
654 52 5.946 14.923 5.940
655 51 5.878 15.065 9.058
656 52 9.159 11.856 6.056
657 51 5.931 12.079 11.966
658 52 8.993 14.883 15.105
659 32 8.927 14.950 11.888
660 52 6.161 12.125 14.993
661 51 9.112 12.142 14.931
662 52 6.033 15.081 12.010
663 32 6.138 14.913 14.997
664 52 9.088 11.887 11.948
665 51 6.048 12.067 17.999
666 52 8.777 15.113 20.742
667 32 9.001 15.140 18.187
668 52 6.140 12.110 21.005
669 51 9.072 11.852 21.072
670 52 5.922 15.013 18.081
671 32 6.094 14.899 21.046
672 52 9.183 12.132 18.123
673 51 5.899 11.919 24.137
674 52 9.132 14.999 27.117
675 32 9.010 15.121 23.892
676 52 6.023 11.957 26.761
677 51 9.048 11.822 27.000
678 52 5.985 14.859 24.059
679 32 6.035 15.012 26.996
680 52 9.028 12.107 24.007
681 32 6.087 12.196 30.035
682 52 8.905 14.892 32.931
683 51 9.054 15.100 30.033
684 52 6.020 11.986 33.157
685 51 8.945 12.044 33.046
686 52 6.112 15.061 30.035
687 51 5.920 15.149 33.081
688 52 9.060 11.940 29.960
689 32 5.896 11.928 36.013
690 52 9.070 15.122 38.952
691 32 9.061 14.900 36.040
692 52 6.013 12.111 39.161
693 51 9.023 12.163 39.154
694 52 5.911 15.041 36.040
695 32 5.769 15.022 39.047
696 52 9.112 12.023 36.018
697 51 6.231 11.926 42.049
698 52 8.992 15.195 45.185
699 51 8.927 14.940 41.948
700 52 5.948 11.726 44.935
701 51 8.966 12.221 45.009
702 52 5.933 14.931 41.898
703 51 6.020 15.003 44.945
704 52 8.963 12.041 41.917
705 51 6.005 18.021 -0.092
706 52 8.786 20.902 2.958
707 32 9.198 21.055 -0.192
708 52 6.005 18.210 3.009
709 32 9.047 18.000 3.116
710 52 5.999 21.111 -0.029
711 32 6.037 20.998 2.806
712 52 9.187 18.184 0.090
713 51 5.921 17.900 6.029
714 52 8.874 20.905 8.994
715 32 8.890 21.030 5.942
716 52 6.033 18.000 9.100
717 51 9.151 17.927 8.917
718 52 5.799 20.987 5.950
719 32 6.027 20.747 8.893
720 52 8.907 18.021 6.082
721 51 6.136 17.935 12.068
722 52 9.036 21.010 15.026
723 32 8.996 21.136 12.147
724 52 6.015 17.975 15.049
725 51 8.986 18.091 14.930
726 52 5.853 20.999 12.034
727 32 6.073 21.084 15.098
728 52 8.821 17.820 12.024
729 32 6.074 17.854 18.120
730 52 8.992 20.883 20.873
731 51 9.021 21.109 18.120
732 52 5.988 17.763 21.159
733 32 9.095 18.072 21.007
734 52 6.046 20.916 17.981
735 32 5.992 20.959 20.954
736 52 8.911 17.957 17.908
737 32 6.004 18.077 23.884
738 52 9.032 21.045 26.949
739 32 8.985 20.900 23.973
740 52 6.177 18.056 27.033
741 32 9.001 18.065 26.988
742 52 6.074 21.038 24.045
743 32 6.057 20.910 26.955
744 52 9.045 17.926 23.921
745 32 6.139 18.216 30.084
746 52 8.842 20.995 33.013
747 51 9.177 21.117 30.024
748 52 6.061 17.859 33.076
749 51 9.023 18.103 33.180
750 52 5.830 21.152 30.099
751 32 6.020 21.051 33.029
752 52 9.046 17.942 29.961
753 51 6.069 17.993 36.046
754 52 9.023 21.003 38.763
755 32 9.008 20.976 35.958
756 52 6.187 17.985 39.108
757 32 9.028 18.046 39.049
758 52 6.034 20.938 36.069
759 51 5.992 21.117 38.969
760 52 9.047 18.016 35.997
761 32 5.804 17.864 42.079
762 52 9.193 20.981 45.131
763 51 9.030 20.879 41.825
764 52 6.055 18.091 44.817
765 32 8.873 17.956 44.903
766 52 5.960 21.182 41.880
767 32 5.904 21.114 45.077
768 52 9.053 18.093 42.062
769 32 5.931 24.065 0.013
770 52 8.959 26.970 2.976
771 32 8.928 27.197 0.025
772 52 6.045 24.031 3.144
773 51 9.063 24.065 2.883
774 52 6.020 27.042 -0.135
775 32 6.035 26.980 3.046
776 52 9.060 24.032 0.122
777 32 5.794 24.094 5.809
778 52 8.976 26.855 9.098
779 51 9.010 27.131 5.959
780 52 5.986 24.016 8.947
781 32 8.863 23.996 8.949
782 52 5.914 26.934 5.999
783 32 6.102 27.052 9.009
784 52 9.014 23.898 5.922
785 32 5.934 24.004 12.067
786 52 8.987 27.010 15.055
787 32 8.993 26.843 12.184
788 52 5.943 23.846 15.057
789 32 8.972 23.969 14.897
790 52 6.055 27.011 12.018
791 32 6.126 27.078 14.977
792 52 8.972 24.257 12.041
793 51 6.179 23.982 18.029
794 52 9.111 27.016 20.765
795 32 8.998 26.862 18.042
796 52 5.968 24.040 21.069
797 32 8.867 23.885 20.900
798 52 6.152 27.106 17.985
799 51 6.113 26.948 21.100
800 52 9.086 24.013 18.068
801 32 6.123 23.986 24.077
802 52 9.078 27.031 27.129
803 32 8.999 27.024 24.027
804 52 5.885 23.798 27.058
805 51 9.074 24.252 26.949
806 52 6.002 27.262 24.121
807 32 5.942 26.952 27.078
808 52 9.138 23.867 23.968
809 51 5.956 24.166 29.913
810 52 9.047 26.953 32.764
811 32 9.124 26.899 30.120
812 52 6.049 24.105 33.054
813 32 8.820 23.980 33.002
814 52 6.145 27.124 29.905
815 51 5.996 26.807 32.859
816 52 9.019 24.058 30.164
817 32 6.045 23.960 36.113
818 52 9.124 27.017 39.116
819 32 9.004 26.940 36.233
820 52 5.903 24.157 39.079
821 32 9.006 24.070 38.938
822 52 6.156 27.045 36.014
823 51 6.094 26.910 39.044
824 52 9.193 24.107 36.060
825 32 5.906 24.013 41.966
826 52 8.983 26.774 45.118
827 32 9.007 27.002 42.042
828 52 5.850 24.104 44.812
829 32 9.030 23.986 44.997
830 52 6.036 26.883 42.074
831 51 5.931 27.005 45.083
832 52 8.861 24.055 42.041
833 32 6.020 30.098 0.124
834 52 9.074 32.968 2.952
835 32 8.992 32.931 -0.006
836 52 6.133 29.782 2.983
837 32 8.713 29.929 3.005
838 52 6.041 33.185 -0.102
839 32 6.003 32.903 2.991
840 52 9.016 29.919 -0.010
841 32 5.960 30.108 6.008
842 52 9.066 32.994 8.975
843 32 8.921 33.050 6.101
844 52 5.700 30.235 8.960
845 32 9.049 29.894 9.132
846 52 5.899 32.979 6.029
847 51 6.149 32.995 9.094
848 52 8.831 29.999 6.137
849 51 5.852 30.122 11.922
850 52 9.190 33.145 15.215
851 32 9.106 32.957 12.009
852 52 6.044 30.026 14.903
853 51 8.951 30.010 15.234
854 52 5.913 33.104 12.036
855 32 6.042 32.738 15.090
856 52 8.866 30.016 11.952
857 32 5.994 30.053 18.113
858 52 8.984 33.132 20.988
859 51 9.171 32.998 17.987
860 52 6.030 30.058 20.994
861 51 8.906 29.957 21.067
862 52 6.067 33.100 18.226
863 32 6.051 33.076 20.939
864 52 9.065 30.178 17.959
865 51 6.138 30.018 23.956
866 52 9.060 33.112 26.978
867 51 9.002 32.947 23.848
868 52 6.164 29.938 27.120
869 32 9.007 30.044 27.103
870 52 5.963 32.999 24.032
871 32 5.954 32.991 26.942
872 52 9.108 30.067 23.902
873 51 6.075 30.108 29.888
874 52 9.010 32.939 32.894
875 32 9.008 33.132 30.192
876 52 5.954 29.877 33.001
877 32 8.868 30.064 33.117
878 52 6.002 33.094 30.090
879 51 5.955 32.890 32.818
880 52 8.794 29.999 29.989
881 32 5.840 30.042 35.905
882 52 9.099 33.044 39.019
883 32 8.951 33.028 35.924
884 52 6.055 30.113 38.929
885 51 9.126 29.996 38.943
886 52 5.937 33.176 36.023
887 32 6.213 32.965 39.025
888 52 9.177 30.037 35.961
889 32 5.917 29.923 42.146
890 52 9.184 32.927 44.846
891 32 8.806 32.973 42.005
892 52 5.965 30.027 44.943
893 51 9.047 29.993 44.907
894 52 6.035 32.950 41.878
895 32 5.948 32.937 44.902
896 52 8.899 29.967 42.042
897 51 6.046 36.126 -0.071
898 52 8.987 39.009 2.863
899 32 9.096 38.962 0.090
900 52 6.054 36.162 3.016
901 32 9.120 36.109 3.107
902 52 6.054 39.029 -0.104
903 32 6.065 39.008 3.011
904 52 8.896 36.053 -0.102
905 32 5.913 35.937 5.852
906 52 8.867 38.922 8.969
907 51 9.002 39.054 6.010
908 52 6.026 36.182 8.819
909 51 9.118 35.890 9.074
910 52 5.970 38.968 6.089
911 51 5.998 39.022 8.808
912 52 9.113 35.950 5.956
913 51 5.945 36.143 11.963
914 52 9.122 38.797 14.978
915 32 8.934 39.076 11.968
916 52 5.864 35.802 15.122
917 32 8.999 35.962 15.026
918 52 6.077 39.022 12.088
919 51 6.207 38.931 14.890
920 52 9.094 35.918 12.024
921 32 5.934 36.207 17.947
922 52 9.098 38.966 21.032
923 51 9.058 38.942 17.967
924 52 6.031 35.998 21.003
925 51 9.041 35.821 21.055
926 52 6.087 38.911 17.841
927 32 5.871 39.043 20.863
928 52 9.023 36.096 18.073
929 51 6.095 35.980 23.904
930 52 9.219 39.120 26.941
931 32 8.932 39.040 23.974
932 52 6.037 35.841 26.938
933 51 8.757 36.003 26.920
934 52 5.999 39.191 24.079
935 32 5.911 38.883 26.862
936 52 9.027 35.999 24.232
937 32 6.063 35.912 29.964
938 52 8.799 39.095 33.089
939 51 9.021 38.908 29.926
940 52 6.062 35.986 32.947
941 32 9.090 35.880 32.936
942 52 6.010 39.170 29.746
943 32 5.927 38.842 32.858
944 52 8.914 36.048 30.134
945 32 5.894 36.070 35.971
946 52 8.994 38.805 38.985
947 32 9.087 39.103 35.993
948 52 6.023 35.906 38.772
949 32 8.884 36.161 38.989
950 52 6.049 39.064 36.089
951 32 5.953 39.101 39.008
952 52 8.946 35.904 36.125
953 32 5.982 35.969 42.107
954 52 8.770 38.820 44.903
955 32 8.941 38.800 42.065
956 52 5.725 35.864 44.853
957 32 9.046 36.003 45.011
958 52 6.028 38.829 41.893
959 32 5.750 39.013 45.252
960 52 8.942 36.199 42.018
961 51 6.060 42.018 -0.175
962 52 8.909 45.050 3.040
963 51 8.891 44.807 -0.133
964 52 5.870 42.005 3.194
965 51 9.155 41.967 2.873
966 52 5.934 45.053 -0.073
967 51 5.882 44.914 2.867
968 52 9.139 41.968 -0.210
969 51 6.220 42.045 5.996
970 52 8.837 44.987 8.943
971 51 8.733 44.891 6.079
972 52 6.006 42.141 8.955
973 51 9.071 41.792 9.034
974 52 6.021 45.138 6.026
975 51 5.779 45.075 9.038
976 52 8.953 42.089 5.923
977 51 6.044 41.875 11.790
978 52 9.036 45.020 15.041
979 32 8.845 44.993 11.978
980 52 6.125 42.094 14.924
981 51 8.964 41.985 15.034
982 52 6.021 44.990 11.967
983 32 5.886 44.976 15.138
984 52 9.076 42.063 11.996
985 51 6.206 42.083 17.913
986 52 8.950 44.918 21.010
987 51 8.984 44.908 18.392
988 52 5.979 42.124 21.068
989 32 9.099 42.043 21.001
990 52 6.012 45.184 18.100
991 51 5.999 45.084 20.895
992 52 8.971 42.091 17.936
993 32 6.256 41.866 23.984
994 52 8.995 44.779 26.910
995 32 9.016 45.059 23.876
996 52 6.053 41.737 27.174
997 51 9.051 41.934 27.059
998 52 6.133 44.760 23.918
999 32 6.185 45.047 27.093
1000 52 8.962 42.102 24.087
1001 51 5.928 41.883 29.957
1002 52 9.177 44.963 33.094
1003 51 9.010 44.964 30.095
1004 52 5.813 42.059 33.083
1005 32 8.984 41.895 32.853
1006 52 5.922 44.795 29.992
1007 51 6.095 44.971 32.788
1008 52 8.990 41.973 29.855
1009 32 5.966 42.043 36.013
1010 52 8.959 44.981 38.971
1011 51 9.112 44.985 36.041
1012 52 6.076 42.217 39.033
1013 51 8.974 41.872 38.897
1014 52 6.147 45.039 36.052
1015 51 6.090 45.022 38.999
1016 52 8.848 42.158 36.150
1017 32 6.009 42.013 42.014
1018 52 8.916 45.046 45.022
1019 51 8.916 45.035 41.944
1020 52 5.963 42.198 45.030
1021 32 8.971 41.972 44.947
1022 52 5.937 45.085 42.112
1023 32 6.031 44.825 44.898
1024 52 8.951 42.047 42.019
1025 51 12.116 0.150 0.050
1026 52 14.850 2.814 3.060
1027 32 14.920 3.147 -0.045
1028 52 12.042 -0.066 2.908
1029 51 15.139 -0.060 2.898
1030 52 11.896 3.115 -0.111
1031 32 12.191 3.048 3.073
1032 52 15.013 0.241 -0.018
1033 32 11.998 -0.019 6.042
1034 52 14.961 3.075 9.145
1035 32 14.824 3.205 6.035
1036 52 12.039 0.028 9.076
1037 51 15.041 0.003 8.922
1038 52 11.989 2.866 5.919
1039 51 11.974 3.223 8.853
1040 52 14.910 0.054 6.178
1041 32 12.097 -0.097 11.989
1042 52 15.061 2.992 14.993
1043 51 15.055 3.101 12.095
1044 52 11.883 -0.165 14.907
1045 32 15.002 0.197 15.065
1046 52 11.986 2.975 12.019
1047 32 12.005 2.920 15.122
1048 52 15.204 -0.025 11.898
1049 51 12.033 0.056 18.065
1050 52 14.947 3.186 20.993
1051 32 14.946 3.138 17.994
1052 52 12.001 -0.110 21.069
1053 32 14.944 -0.171 20.988
1054 52 12.104 2.913 17.993
1055 32 11.930 2.913 20.789
1056 52 14.950 0.009 18.007
1057 32 11.831 -0.023 23.962
1058 52 14.932 3.036 27.092
1059 51 14.939 3.086 24.027
1060 52 12.094 -0.295 26.912
1061 51 14.973 0.038 26.890
1062 52 12.264 2.906 23.869
1063 51 11.878 3.032 27.034
1064 52 15.040 0.065 24.097
1065 32 12.208 -0.053 30.048
1066 52 14.948 2.908 32.963
1067 32 14.739 2.922 30.063
1068 52 11.792 -0.204 33.024
1069 32 14.915 0.119 33.099
1070 52 11.822 2.982 29.948
1071 51 12.092 3.022 32.951
1072 52 14.947 -0.253 29.900
1073 51 11.948 -0.021 36.034
1074 52 14.984 2.993 38.944
1075 51 14.827 2.868 36.138
1076 52 12.063 -0.036 39.094
1077 51 15.105 -0.042 39.067
1078 52 12.026 2.801 35.955
1079 32 12.036 3.035 38.971
1080 52 15.068 0.281 36.049
1081 32 12.082 0.048 41.975
1082 52 15.034 3.025 44.819
1083 51 14.869 3.100 42.072
1084 52 11.913 -0.043 45.008
1085 32 14.886 0.011 45.201
1086 52 12.134 3.092 42.091
1087 32 12.134 2.752 45.021
1088 52 15.059 0.030 41.965
1089 32 11.959 5.859 -0.100
1090 52 14.840 8.985 2.828
1091 32 14.998 9.078 -0.031
1092 52 12.065 6.154 2.994
1093 51 15.014 5.845 3.098
1094 52 11.867 9.185 0.033
1095 32 11.994 8.918 3.073
1096 52 15.027 6.033 0.022
1097 32 12.078 6.027 5.902
1098 52 14.982 8.928 8.790
1099 32 15.192 9.002 5.875
1100 52 11.829 6.218 8.942
1101 51 15.056 5.695 8.793
1102 52 12.053 8.998 5.948
1103 32 12.017 8.984 9.056
1104 52 15.047 6.013 6.058
1105 51 11.967 6.036 12.046
1106 52 14.975 8.822 15.215
1107 32 14.997 8.826 12.090
1108 52 12.140 5.697 14.995
1109 32 14.935 5.911 14.926
1110 52 11.957 8.955 12.159
1111 32 12.002 8.995 14.983
1112 52 15.179 6.022 12.195
1113 32 11.887 6.087 17.887
1114 52 15.024 8.854 20.906
1115 51 14.969 8.983 18.042
1116 52 11.958 6.108 20.963
1117 32 14.723 5.891 20.958
1118 52 12.074 9.045 17.869