ITEM: TIMESTEP
0
ITEM: NUMBER OF ATOMS
3487
ITEM: BOX BOUNDS pp pp pp
0.0 40.500000
0.0 40.500000
0.0 40.500000
ITEM: ATOMS id type x y z
1 3 40.45964 40.05599 0.00629
2 1 40.37336 1.66921 2.32389
3 1 1.83631 40.08596 2.41408
4 1 1.92567 1.54833 0.33024
5 1 40.31651 1.79087 6.37167
6 1 1.77945 40.20762 6.46185
7 1 1.86882 1.66998 4.37801
8 1 40.22715 40.32851 8.45551
9 1 40.25966 1.91253 10.41944
10 1 1.81196 1.79164 8.42578
11 1 40.17029 40.45016 12.50328
12 1 40.20280 2.03419 14.46721
13 5 2.14372 0.93640 14.72910
14 1 1.75511 1.91330 12.47356
15 5 0.08988 0.73744 16.71490
16 5 0.05058 2.56182 18.92201
17 5 2.08556 0.55333 18.76052
18 5 2.10442 2.76077 16.93621
19 5 0.03172 0.35438 20.74632
20 5 40.49243 2.17875 22.95344
21 5 2.02741 0.17027 22.79195
22 5 2.04627 2.37771 20.96764
23 5 40.47357 40.47131 24.77774
24 5 40.43427 1.79569 26.98486
25 5 1.96926 40.28720 26.82337
26 5 1.98812 1.99464 24.99906
27 5 40.41542 40.08825 28.80917
28 5 40.37612 1.41262 31.01628
29 5 1.91110 39.90414 30.85479
30 5 1.92996 1.61158 29.03048
31 5 40.35726 39.70518 32.84059
32 5 40.31797 1.02956 35.04771
33 5 1.85295 39.52108 34.88622
34 5 1.87181 1.22852 33.06191
35 3 40.39388 39.47092 36.49931
36 3 0.03100 1.26431 38.20894
37 1 40.46272 3.63158 0.24006
38 1 40.49523 5.71560 2.20399
39 1 1.95818 3.63235 2.29417
40 1 2.04754 5.59471 0.21033
41 1 40.40587 3.75324 4.28783
42 1 40.43838 5.83726 6.25176
43 1 1.90133 3.75401 6.34195
44 1 1.99069 5.71637 4.25811
45 1 40.34902 3.87490 8.33560
46 1 40.38153 5.95892 10.29954
47 1 1.84447 3.87566 10.38972
48 1 1.93384 5.83803 8.30588
49 1 40.29217 3.99655 12.38338
50 1 40.32468 6.08058 14.34731
51 1 1.78762 3.99732 14.43749
52 1 1.87698 5.95969 12.35365
53 1 40.26782 6.20223 18.39508
54 5 2.06513 4.58515 19.14333
55 1 1.82013 6.08135 16.40143
56 5 0.01128 4.38619 21.12913
57 5 40.47199 6.21057 23.33624
58 5 2.00697 4.20208 23.17475
59 5 2.02583 6.40952 21.35044
60 5 40.45313 4.00313 25.16055
61 5 40.41383 5.82750 27.36767
62 5 1.94882 3.81902 27.20618
63 5 1.96768 6.02646 25.38187
64 5 40.39498 3.62006 29.19198
65 5 40.35568 5.44444 31.39909
66 5 1.89067 3.43596 31.23760
67 5 1.90952 5.64340 29.41329
68 5 40.33682 3.23700 33.22340
69 5 1.83251 3.05289 35.26902
70 5 1.85137 5.26033 33.44472
71 1 0.05208 5.59395 38.65622
72 1 0.08459 7.67797 0.12015
73 1 0.11710 9.76199 2.08409
74 1 2.08005 7.67874 2.17427
75 1 2.16941 9.64110 0.09043
76 1 0.02774 7.79963 4.16792
77 1 0.06025 9.88365 6.13186
78 1 2.02320 7.80040 6.22204
79 1 2.11256 9.76276 4.13820
80 1 40.47089 7.92129 8.21570
81 1 0.00340 10.00531 10.17963
82 1 1.96635 7.92205 10.26981
83 1 2.05571 9.88442 8.18598
84 1 40.41404 8.04294 12.26347
85 1 40.44655 10.12697 14.22740
86 1 1.90949 8.04371 14.31759
87 1 1.99886 10.00608 12.23375
88 1 40.35719 8.16460 16.31124
89 1 40.38970 10.24862 18.27518
90 1 1.85264 8.16537 18.36536
91 1 1.94200 10.12774 16.28152
92 5 40.49085 8.41801 21.51193
93 5 40.45155 10.24238 23.71905
94 5 1.98653 8.23390 23.55756
95 1 1.88515 10.24939 20.32930
96 5 40.43269 8.03494 25.54336
97 5 40.39340 9.85932 27.75047
98 5 1.92838 7.85084 27.58898
99 5 1.94724 10.05828 25.76467
100 5 40.37454 7.65188 29.57478
101 5 40.33524 9.47626 31.78190
102 5 1.87023 7.46777 31.62041
103 5 1.88909 9.67521 29.79610
104 5 1.83093 9.29215 33.82752
105 1 0.14144 7.55631 36.57238
106 1 0.17395 9.64034 38.53631
107 1 2.13690 7.55708 38.62650
108 1 2.22626 9.51945 36.54266
109 1 0.20646 11.72436 0.00025
110 1 0.23897 13.80838 1.96418
111 1 2.20192 11.72513 2.05436
112 1 2.29128 13.68749 40.47053
113 1 0.14961 11.84602 4.04802
114 1 0.18212 13.93004 6.01195
115 1 2.14507 11.84679 6.10214
116 1 2.23443 13.80915 4.01830
117 1 0.09276 11.96768 8.09579
118 1 0.12527 14.05170 10.05973
119 1 2.08822 11.96844 10.14991
120 1 2.17758 13.93081 8.06607
121 1 0.03591 12.08933 12.14357
122 1 0.06842 14.17336 14.10750
123 1 2.03137 12.09010 14.19768
124 1 2.12073 14.05247 12.11384
125 1 40.47906 12.21099 16.19134
126 1 0.01157 14.29501 18.15527
127 1 1.97451 12.21176 18.24546
128 1 2.06388 14.17413 16.16162
129 1 40.42221 12.33265 20.23911
130 1 40.45472 14.41667 22.20305
131 1 1.91766 12.33342 22.29323
132 1 2.00702 14.29578 20.20939
133 5 40.41225 12.06676 25.92616
134 5 40.37296 13.89114 28.13328
135 5 1.90794 11.88265 27.97179
136 5 1.92680 14.09009 26.14748
137 5 40.35410 11.68370 29.95759
138 5 1.84979 11.49959 32.00321
139 5 1.86865 13.70703 30.17890
140 1 0.35267 13.56507 34.36863
141 1 0.26331 11.60270 36.45247
142 1 0.29582 13.68673 38.41641
143 1 2.25877 11.60347 38.50659
144 1 2.34813 13.56584 36.42275
145 1 0.32833 15.77075 40.38034
146 1 0.36084 17.85477 1.84428
147 1 2.32379 15.77152 1.93446
148 1 2.41315 17.73388 40.35062
149 1 0.27148 15.89241 3.92812
150 1 0.30399 17.97643 5.89205
151 1 2.26694 15.89318 5.98223
152 1 2.35630 17.85554 3.89839
153 1 0.21463 16.01407 7.97589
154 1 0.24714 18.09809 9.93982
155 1 2.21009 16.01483 10.03001
156 1 2.29945 17.97720 7.94617
157 1 0.15778 16.13572 12.02366
158 1 0.19029 18.21975 13.98760
159 1 2.15324 16.13649 14.07778
160 1 2.24260 18.09886 11.99394
161 1 0.10093 16.25738 16.07143
162 1 2.09639 16.25815 18.12555
163 5 0.11506 18.48786 20.65660
164 5 2.16890 18.68681 18.67080
165 5 0.09620 16.28042 22.48091
166 5 0.05690 18.10479 24.68802
167 5 2.09189 16.09631 24.52653
168 5 2.11075 18.30375 22.70222
169 5 0.03805 15.89735 26.51233
170 5 40.49875 17.72173 28.71945
171 5 2.03374 15.71324 28.55795
172 5 2.05259 17.92068 26.73365
173 1 0.44203 15.52743 32.28480
174 1 0.47454 17.61146 34.24873
175 1 2.43749 15.52820 34.33891
176 5 1.99444 17.53762 30.76507
177 1 0.38518 15.64909 36.33257
178 1 0.41769 17.73312 38.29650
179 1 2.38064 15.64986 38.38669
180 1 2.47000 17.61223 36.30285
181 1 0.45020 19.81714 40.26044
182 1 0.48271 21.90116 1.72437
183 1 2.44566 19.81791 1.81455
184 1 0.39335 19.93880 3.80821
185 1 0.42586 22.02282 5.77215
186 1 2.38881 19.93957 5.86233
187 1 2.47817 21.90193 3.77849
188 1 0.33650 20.06046 7.85598
189 1 0.36901 22.14448 9.81992
190 1 2.33196 20.06122 9.91010
191 1 2.42132 22.02359 7.82626
192 1 0.27965 20.18211 11.90376
193 5 0.21093 23.28580 12.97656
194 1 2.36447 22.14525 11.87404
195 5 0.15277 22.90274 17.00798
196 5 2.18776 20.89425 16.84649
197 5 2.20661 23.10169 15.02218
198 5 0.13392 20.69530 18.83229
199 5 0.09462 22.51967 21.03940
200 5 2.12960 20.51119 20.87791
201 5 2.14846 22.71863 19.05360
202 5 0.07576 20.31223 22.86371
203 5 0.03647 22.13661 25.07083
204 5 2.07145 20.12812 24.90934
205 5 2.09031 22.33556 23.08503
206 5 0.01761 19.92917 26.89514
207 5 40.47831 21.75354 29.10225
208 5 2.01330 19.74506 28.94076
209 5 2.03215 21.95250 27.11645
210 5 40.45946 19.54610 30.92656
211 5 40.42016 21.37048 33.13368
212 5 1.95514 19.36200 32.97219
213 5 1.97400 21.56944 31.14788
214 5 1.91585 21.18637 35.17930
215 3 39.76284 26.34257 4.06680
216 5 1.83726 24.83512 39.59353
217 1 0.51522 23.98519 3.68831
218 1 0.54773 26.06921 5.65224
219 1 2.51068 23.98596 5.74242
220 1 2.60004 25.94832 3.65858
221 1 0.45837 24.10684 7.73608
222 5 0.24864 27.70068 9.32794
223 5 2.28363 25.69220 9.16645
224 5 2.30248 27.89964 7.34214
225 5 0.22978 25.49324 11.15225
226 5 0.19049 27.31762 13.35936
227 5 2.22547 25.30913 13.19787
228 5 2.24433 27.51657 11.37356
229 5 0.17163 25.11018 15.18367
230 5 0.13233 26.93455 17.39079
231 5 2.16732 24.92607 17.22930
232 5 2.18618 27.13351 15.40499
233 5 0.11348 24.72711 19.21509
234 5 0.07418 26.55149 21.42221
235 5 2.10917 24.54300 21.26072
236 5 2.12802 26.75044 19.43641
237 5 0.05532 24.34405 23.24652
238 5 0.01603 26.16842 25.45363
239 5 2.05101 24.15994 25.29214
240 5 2.06987 26.36738 23.46783
241 5 40.49717 23.96098 27.27794
242 5 40.45787 25.78536 29.48506
243 5 1.99286 23.77688 29.32357
244 5 2.01172 25.98432 27.49926
245 5 40.43902 23.57792 31.30937
246 5 40.39972 25.40230 33.51648
247 5 1.93471 23.39381 33.35499
248 5 1.95356 25.60125 31.53068
249 5 40.38086 23.19486 35.34079
250 5 40.34157 25.01923 37.54791
251 5 1.87655 23.01075 37.38642
252 5 1.89541 25.21819 35.56211
253 3 39.83420 28.05089 1.76945
254 3 39.97132 30.34427 3.47908
255 3 1.38913 28.23552 3.75551
256 5 1.81682 28.86694 39.97634
257 3 39.89995 28.63596 5.77643
258 3 40.03707 30.92934 7.48606
259 5 2.32134 30.10708 5.51783
260 5 0.26750 29.90812 7.50363
261 5 0.22820 31.73250 9.71074
262 5 2.26319 29.72401 9.54925
263 5 2.28204 31.93145 7.72494
264 5 0.20934 29.52506 11.53505
265 5 0.17005 31.34943 13.74217
266 5 2.20503 29.34095 13.58068
267 5 2.22389 31.54839 11.75637
268 5 0.15119 29.14199 15.56648
269 5 0.11190 30.96637 17.77359
270 5 2.14688 28.95788 17.61210
271 5 2.16574 31.16532 15.78779
272 5 0.09304 28.75893 19.59790
273 5 0.05374 30.58330 21.80502
274 5 2.08873 28.57482 21.64353
275 5 2.10758 30.78226 19.81922
276 5 0.03488 28.37586 23.62933
277 5 40.49559 30.20024 25.83644
278 5 2.03057 28.19176 25.67495
279 5 2.04943 30.39920 23.85064
280 5 40.47673 27.99280 27.66075
281 5 40.43744 29.81718 29.86786
282 5 1.97242 27.80869 29.70637
283 5 1.99128 30.01613 27.88207
284 5 40.41858 27.60974 31.69217
285 5 40.37928 29.43411 33.89929
286 5 1.91427 27.42563 33.73780
287 5 1.93312 29.63307 31.91349
288 5 40.36042 27.22667 35.72360
289 5 40.32113 29.05105 37.93071
290 5 1.85611 27.04256 37.76922
291 5 1.87497 29.25000 35.94491
292 3 40.04268 32.05259 1.18173
293 3 40.17980 34.34598 2.89136
294 3 1.59760 32.23722 3.16779
295 3 40.10843 32.63766 5.18871
296 3 40.24555 34.93105 6.89834
297 3 1.73472 34.53061 4.87742
298 5 0.24706 33.93994 7.88644
299 5 0.20776 35.76431 10.09355
300 5 2.24275 33.75583 9.93206
301 5 2.26161 35.96327 8.10775
302 5 0.18891 33.55687 11.91786
303 5 0.14961 35.38125 14.12497
304 5 2.18460 33.37276 13.96348
305 5 2.20345 35.58020 12.13918
306 5 0.13075 33.17381 15.94928
307 5 0.09146 34.99818 18.15640
308 5 2.12644 32.98970 17.99491
309 5 2.14530 35.19714 16.17060
310 5 0.07260 32.79074 19.98071
311 5 0.03330 34.61512 22.18782
312 5 2.06829 32.60664 22.02633
313 5 2.08715 34.81408 20.20202
314 5 0.01445 32.40768 24.01213
315 5 40.47515 34.23206 26.21925
316 5 2.01014 32.22357 26.05776
317 5 2.02899 34.43101 24.23345
318 5 40.45629 32.02462 28.04356
319 5 40.41700 33.84899 30.25067
320 5 1.95198 31.84051 30.08918
321 5 1.97084 34.04795 28.26487
322 5 40.39814 31.64155 32.07498
323 5 40.35884 33.46593 34.28210
324 5 1.89383 31.45744 34.12060
325 5 1.91269 33.66488 32.29630
326 5 40.33999 31.25849 36.10640
327 3 40.11404 33.76091 39.38438
328 5 1.83568 31.07438 38.15203
329 5 1.85453 33.28182 36.32772
330 3 40.25116 36.05429 0.59401
331 3 40.38827 38.34768 2.30364
332 3 1.80608 36.23892 2.58007
333 3 1.87744 37.94724 0.28273
334 3 40.31691 36.63936 4.60099
335 1 1.74694 38.12359 4.49792
336 1 40.13778 38.36614 10.53935
337 5 2.22231 37.78764 10.31487
338 5 0.16847 37.58869 12.30067
339 5 0.12917 39.41306 14.50778
340 5 2.16416 37.40458 14.34629
341 5 2.18301 39.61202 12.52198
342 5 0.11031 37.20562 16.33209
343 5 0.07102 39.03000 18.53921
344 5 2.10600 37.02152 18.37771
345 5 2.12486 39.22896 16.55341
346 5 0.05216 36.82256 20.36351
347 5 0.01287 38.64694 22.57063
348 5 2.04785 36.63845 22.40914
349 5 2.06671 38.84589 20.58483
350 5 40.49401 36.43950 24.39494
351 5 40.45471 38.26387 26.60205
352 5 1.98970 36.25539 26.44056
353 5 2.00855 38.46283 24.61625
354 5 40.43585 36.05643 28.42636
355 5 40.39656 37.88081 30.63348
356 5 1.93154 35.87232 30.47199
357 5 1.95040 38.07976 28.64768
358 5 40.37770 35.67337 32.45779
359 5 40.33841 37.49774 34.66490
360 5 1.87339 35.48926 34.50341
361 5 1.89225 37.69670 32.67910
362 5 40.31955 35.29030 36.48921
363 3 40.32252 37.76261 38.79666
364 5 1.81524 35.10620 38.53484
365 5 1.83409 37.31364 36.71053
366 2 3.74039 0.31307 40.10931
367 2 5.69106 0.24018 1.70474
368 2 5.82772 2.27206 40.19128
369 1 3.83176 40.08673 4.46819
370 1 3.86427 1.67075 6.43213
371 5 6.25140 1.33431 10.75750
372 5 4.19756 1.13535 12.74330
373 5 4.15826 2.95973 14.95041
374 5 6.19325 0.95124 14.78892
375 5 6.21211 3.15868 12.96461
376 5 4.13941 0.75229 16.77472
377 5 4.10011 2.57666 18.98184
378 5 6.13510 0.56818 18.82035
379 5 6.15395 2.77562 16.99604
380 5 4.08125 0.36922 20.80615
381 5 4.04196 2.19360 23.01326
382 5 6.07694 0.18512 22.85177
383 5 6.09580 2.39256 21.02746
384 5 4.02310 40.48616 24.83757
385 5 3.98380 1.81054 27.04469
386 5 6.01879 40.30205 26.88319
387 5 6.03765 2.00949 25.05889
388 5 3.96495 40.10310 28.86899
389 5 3.92565 1.42747 31.07611
390 5 5.96064 39.91899 30.91462
391 5 5.97949 1.62643 29.09031
392 5 3.90679 39.72003 32.90042
393 2 5.97913 0.27193 34.10993
394 2 6.11578 2.30381 32.09646
395 2 3.88443 0.32895 36.06190
396 2 3.87705 2.34495 38.09585
397 2 5.83510 0.25605 38.15733
398 2 5.97175 2.28793 36.14387
399 1 4.01049 3.51146 0.30052
400 1 4.04300 5.59548 2.26445
401 1 6.09530 5.47459 0.27080
402 1 3.95363 3.63312 4.34829
403 1 3.98614 5.71714 6.31222
404 1 5.94909 3.63389 6.40241
405 1 6.03845 5.59625 4.31857
406 1 3.89678 3.75478 8.39606
407 1 3.92929 5.83880 10.36000
408 1 5.89224 3.75554 10.45018
409 1 5.98160 5.71791 8.36634
410 1 3.83993 3.87643 12.44384
411 1 3.87244 5.96046 14.40777
412 5 6.17281 4.98306 15.17173
413 1 5.92475 5.83957 12.41411
414 5 4.11897 4.78410 17.15753
415 5 4.07967 6.60848 19.36464
416 5 6.11466 4.60000 19.20315
417 5 6.13351 6.80744 17.37884
418 5 4.06081 4.40104 21.18895
419 5 4.02152 6.22542 23.39607
420 5 6.05650 4.21693 23.23458
421 5 6.07536 6.42437 21.41027
422 5 4.00266 4.01798 25.22038
423 5 3.96337 5.84235 27.42749
424 5 5.99835 3.83387 27.26600
425 5 6.01721 6.04131 25.44169
426 5 3.94451 3.63491 29.25180
427 5 3.90521 5.45929 31.45892
428 2 6.25243 4.33569 30.08300
429 2 6.38908 6.36757 28.06954
430 5 3.88635 3.25185 33.28322
431 2 4.15035 6.40871 34.06892
432 2 6.10840 4.31981 34.13041
433 2 6.24505 6.35170 32.11694
434 2 4.01370 4.37683 36.08238
435 2 5.96437 4.30394 38.17781
436 2 6.10102 6.33582 36.16435
437 1 4.13236 7.55785 0.18061
438 1 4.16487 9.64187 2.14455
439 1 6.12781 7.55862 2.23473
440 1 6.21717 9.52098 0.15089
441 1 4.07551 7.67951 4.22839
442 1 4.10802 9.76353 6.19232
443 1 6.07096 7.68028 6.28250
444 1 6.16032 9.64264 4.19866
445 1 4.01865 7.80116 8.27616
446 1 4.05116 9.88519 10.24009
447 1 6.01411 7.80193 10.33028
448 1 6.10347 9.76430 8.24644
449 1 3.96180 7.92282 12.32393
450 1 3.99431 10.00685 14.28787
451 1 5.95726 7.92359 14.37805
452 1 6.04662 9.88596 12.29421
453 1 3.90495 8.04448 16.37170
454 1 3.93746 10.12850 18.33564
455 5 6.09422 8.63181 19.58596
456 1 5.98977 10.00761 16.34198
457 5 4.04038 8.43286 21.57176
458 5 4.00108 10.25723 23.77887
459 5 6.03607 8.24875 23.61738
460 5 6.05492 10.45619 21.79307
461 5 3.98222 8.04979 25.60318
462 2 6.52574 8.39945 26.05607
463 5 3.92407 7.66673 29.63461
464 2 4.42365 10.47248 30.04199
465 2 6.38170 8.38358 30.10348
466 2 6.51835 10.41546 28.09002
467 2 4.28700 8.44059 32.05546
468 2 4.27962 10.45660 34.08940
469 2 6.23767 8.36770 34.15089
470 2 6.37432 10.39958 32.13742
471 1 4.22172 9.52022 38.59677
472 2 6.23029 10.38370 36.18483
473 1 4.25423 11.60424 0.06071
474 1 4.28674 13.68826 2.02464
475 1 6.24968 11.60501 2.11483
476 1 6.33905 13.56737 0.03099
477 1 4.19738 11.72590 4.10848
478 1 4.22989 13.80992 6.07242
479 1 6.19283 11.72667 6.16260
480 1 6.28219 13.68903 4.07876
481 1 4.14053 11.84755 8.15625
482 1 4.17304 13.93158 10.12019
483 1 6.13598 11.84832 10.21037
484 1 6.22534 13.81069 8.12653
485 1 4.08367 11.96921 12.20403
486 1 4.11618 14.05324 14.16796
487 1 6.07913 11.96998 14.25814
488 1 6.16849 13.93235 12.17431
489 1 4.02682 12.09087 16.25180
490 1 4.05933 14.17489 18.21573
491 1 6.02228 12.09164 18.30592
492 1 6.11164 14.05400 16.22208
493 1 3.96997 12.21253 20.29957
494 2 6.65500 12.44734 26.07655
495 2 6.79165 14.47922 24.06309
496 2 4.56030 12.50436 28.02853
497 2 4.55292 14.52036 30.06247
498 2 6.51097 12.43146 30.12396
499 2 6.64762 14.46334 28.11049
500 2 4.41627 12.48848 32.07594
501 2 6.36694 12.41558 34.17137
502 2 6.50359 14.44747 32.15790
503 1 4.34359 13.56661 38.47687
504 1 4.37610 15.65063 40.44080
505 1 4.40861 17.73465 1.90474
506 1 6.37156 15.65140 1.99492
507 1 6.46092 17.61376 40.41108
508 1 4.31925 15.77229 3.98858
509 1 4.35176 17.85631 5.95251
510 1 6.31470 15.77306 6.04269
511 1 6.40407 17.73542 3.95885
512 1 4.26240 15.89394 8.03635
513 1 4.29491 17.97797 10.00028
514 1 6.25785 15.89471 10.09047
515 1 6.34721 17.85708 8.00663
516 1 4.20555 16.01560 12.08412
517 1 4.23806 18.09963 14.04806
518 1 6.20100 16.01637 14.13824
519 1 6.29036 17.97874 12.05440
520 1 4.14869 16.13726 16.13190
521 5 4.22274 18.88577 16.68500
522 5 4.16459 18.50270 20.71642
523 5 6.19957 16.49422 20.55493
524 5 6.21843 18.70166 18.73062
525 5 4.14573 16.29526 22.54073
526 5 4.10644 18.11964 24.74785
527 5 6.16028 18.31860 22.76205
528 5 4.08758 15.91220 26.57216
529 5 4.04828 17.73658 28.77927
530 5 6.10212 17.93553 26.79347
531 5 3.99013 17.35351 32.81069
532 5 6.04397 17.55247 30.82490
533 1 4.43295 15.52897 36.39303
534 1 4.46546 17.61300 38.35696
535 1 6.42841 15.52974 38.44715
536 1 6.51777 17.49211 36.36331
537 1 4.49797 19.69702 40.32090
538 1 4.53048 21.78104 1.78483
539 1 6.49343 19.69779 1.87502
540 1 4.44112 19.81868 3.86867
541 1 4.47363 21.90270 5.83261
542 1 6.43658 19.81945 5.92279
543 1 6.52594 21.78181 3.83895
544 1 4.38427 19.94033 7.91645
545 1 4.41678 22.02436 9.88038
546 1 6.37972 19.94110 9.97056
547 1 6.46909 21.90347 7.88672
548 1 4.32742 20.06199 11.96422
549 5 4.26046 23.30065 13.03638
550 5 6.29544 21.29216 12.87489
551 5 6.31430 23.49960 11.05058
552 5 4.24160 21.09321 14.86069
553 5 4.20230 22.91758 17.06781
554 5 6.23729 20.90910 16.90631
555 5 6.25615 23.11654 15.08201
556 5 4.18345 20.71014 18.89211
557 5 4.14415 22.53452 21.09923
558 5 6.17913 20.52604 20.93774
559 5 6.19799 22.73348 19.11343
560 5 4.12529 20.32708 22.92354
561 5 4.08600 22.15146 25.13065
562 5 6.12098 20.14297 24.96916
563 5 6.13984 22.35041 23.14485
564 5 4.06714 19.94402 26.95496
565 5 4.02784 21.76839 29.16208
566 5 6.06283 19.75991 29.00059
567 5 6.08169 21.96735 27.17628
568 5 4.00899 19.56095 30.98639
569 5 3.96969 21.38533 33.19350
570 5 6.00467 19.37684 33.03201
571 5 6.02353 21.58428 31.20770
572 5 3.95083 19.17789 35.01781
573 5 3.91154 21.00226 37.22493
574 1 6.55028 19.57613 38.32724
575 5 5.96538 21.20122 35.23913
576 5 3.87224 22.82664 39.43204
577 5 3.83294 24.65102 1.13916
578 2 5.31064 26.58052 40.10936
579 1 4.56299 23.86507 3.74877
580 2 5.16661 26.56464 3.65677
581 1 4.50614 23.98672 7.79654
582 5 4.29817 27.71553 9.38776
583 5 6.33316 25.70704 9.22627
584 5 6.35201 27.91448 7.40196
585 5 4.27931 25.50809 11.21207
586 5 4.24002 27.33246 13.41919
587 5 6.27500 25.32398 13.25770
588 5 6.29386 27.53142 11.43339
589 5 4.22116 25.12502 15.24350
590 5 4.18187 26.94940 17.45061
591 5 6.21685 24.94092 17.28912
592 5 6.23571 27.14836 15.46481
593 5 4.16301 24.74196 19.27492
594 5 4.12371 26.56634 21.48204
595 5 6.15870 24.55785 21.32055
596 5 6.17755 26.76529 19.49624
597 5 4.10485 24.35890 23.30634
598 5 4.06556 26.18327 25.51346
599 5 6.10054 24.17479 25.35197
600 5 6.11940 26.38223 23.52766
601 5 4.04670 23.97583 27.33777
602 5 4.00741 25.80021 29.54488
603 5 6.04239 23.79172 29.38339
604 5 6.06125 25.99916 27.55908
605 5 3.98855 23.59277 31.36919
606 5 3.94925 25.41714 33.57631
607 5 5.98424 23.40866 33.41482
608 5 6.00309 25.61610 31.59051
609 5 3.93039 23.20970 35.40062
610 5 3.89110 25.03408 37.60773
611 5 5.94494 25.23304 35.62193
612 2 5.30326 28.59652 1.64330
613 2 5.43991 30.62840 40.12984
614 5 4.33589 32.13041 5.73915
615 2 5.29588 30.61253 3.67725
616 5 4.31703 29.92297 7.56345
617 5 4.27773 31.74734 9.77057
618 5 6.31272 29.73886 9.60908
619 5 6.33158 31.94630 7.78477
620 5 4.25888 29.53990 11.59488
621 5 4.21958 31.36428 13.80199
622 5 6.25456 29.35580 13.64050
623 5 6.27342 31.56324 11.81619
624 5 4.20072 29.15684 15.62630
625 5 4.16143 30.98122 17.83342
626 5 6.19641 28.97273 17.67193
627 5 6.21527 31.18017 15.84762
628 5 4.14257 28.77378 19.65773
629 5 4.10327 30.59815 21.86484
630 5 6.13826 28.58967 21.70335
631 5 6.15712 30.79711 19.87904
632 5 4.08442 28.39071 23.68915
633 5 4.04512 30.21509 25.89627
634 5 6.08010 28.20660 25.73478
635 5 6.09896 30.41404 23.91047
636 5 4.02626 28.00765 27.72057
637 5 3.98697 29.83202 29.92769
638 5 6.02195 27.82354 29.76620
639 5 6.04081 30.03098 27.94189
640 5 3.96811 27.62458 31.75200
641 5 3.92881 29.44896 33.95911
642 5 5.96380 27.44048 33.79762
643 5 5.98266 29.64792 31.97331
644 5 3.90996 27.24152 35.78342
645 5 3.87066 29.06590 37.99054
646 2 3.47448 34.73331 1.60230
647 2 5.43253 32.64441 1.66378
648 2 5.56918 34.67629 40.15032
649 2 5.42515 34.66041 3.69773
650 5 4.29659 33.95478 7.94626
651 5 4.25729 35.77916 10.15338
652 5 6.29228 33.77068 9.99189
653 5 6.31114 35.97812 8.16758
654 5 4.23844 33.57172 11.97768
655 5 4.19914 35.39610 14.18480
656 5 6.23413 33.38761 14.02331
657 5 6.25298 35.59505 12.19900
658 5 4.18028 33.18866 16.00911
659 5 4.14099 35.01303 18.21622
660 5 6.17597 33.00455 18.05473
661 5 6.19483 35.21199 16.23042
662 5 4.12213 32.80559 20.04053
663 5 4.08283 34.62997 22.24765
664 5 6.11782 32.62148 22.08616
665 5 6.13668 34.82892 20.26185
666 5 4.06398 32.42253 24.07196
667 5 4.02468 34.24690 26.27907
668 5 6.05967 32.23842 26.11758
669 5 6.07852 34.44586 24.29327
670 5 4.00582 32.03946 28.10338
671 5 3.96653 33.86384 30.31050
672 5 6.00151 31.85536 30.14901
673 5 6.02037 34.06280 28.32470
674 5 3.94767 31.65640 32.13481
675 5 3.90837 33.48078 34.34192
676 5 3.88952 31.27334 36.16623
677 2 5.57656 32.66028 38.11638
678 2 5.71321 34.69216 36.10291
679 2 3.61113 36.76519 40.08883
680 2 5.56180 36.69229 1.68426
681 2 5.69845 38.72417 40.17080
682 5 4.27615 37.98660 8.32907
683 5 4.23686 39.81098 10.53618
684 5 6.27184 37.80249 10.37469
685 5 4.21800 37.60354 12.36049
686 5 4.17870 39.42791 14.56761
687 5 6.21369 37.41943 14.40612
688 5 6.23254 39.62687 12.58181
689 5 4.15985 37.22047 16.39192
690 5 4.12055 39.04485 18.59903
691 5 6.15553 37.03636 18.43754
692 5 6.17439 39.24380 16.61323
693 5 4.10169 36.83741 20.42334
694 5 4.06240 38.66178 22.63045
695 5 6.09738 36.65330 22.46896
696 5 6.11624 38.86074 20.64466
697 5 4.04354 36.45434 24.45476
698 5 4.00424 38.27872 26.66188
699 5 6.03923 36.27024 26.50039
700 5 6.05808 38.47768 24.67608
701 5 3.98539 36.07128 28.48619
702 5 3.94609 37.89566 30.69330
703 5 5.99993 38.09461 28.70750
704 5 3.92723 35.68822 32.51761
705 2 5.84986 36.72405 34.08945
706 2 3.74778 38.79707 38.07537
707 2 5.70583 36.70817 38.13685
708 2 5.84248 38.74005 36.12339
709 2 7.78577 0.18316 40.25276
710 2 7.77839 2.19916 1.78671
711 2 9.73644 0.11026 1.84819
712 2 9.87309 2.14214 40.33473
713 2 7.64173 0.16728 3.80017
714 4 9.51778 1.63452 5.59249
715 4 9.88224 3.45309 3.41047
716 4 9.26861 2.00458 9.61785
717 4 9.63308 3.82315 7.43582
718 5 8.24709 1.15020 12.80312
719 5 8.20780 2.97458 15.01024
720 5 10.24278 0.96609 14.84875
721 4 9.38391 4.19321 11.46118
722 5 8.18894 0.76714 16.83455
723 5 8.14964 2.59151 19.04166
724 5 10.20348 2.79047 17.05586
725 5 8.13078 0.38407 20.86597
726 2 10.45661 0.18965 22.11116
727 2 10.59326 2.22153 20.09769
728 5 8.07263 0.00101 24.89740
729 2 8.35452 2.26267 26.09708
730 2 10.31257 0.17377 26.15856
731 2 10.44922 2.20565 24.14510
732 2 8.21787 0.23079 28.11054
733 2 8.21049 2.24679 30.14449
734 2 10.16854 0.15789 30.20597
735 2 10.30519 2.18977 28.19251
736 2 8.07383 0.21491 32.15795
737 2 8.06645 2.23092 34.19189
738 2 10.02450 0.14202 34.25338
739 2 10.16116 2.17390 32.23991
740 2 7.92980 0.19903 36.20536
741 2 7.92242 2.21504 38.23930
742 2 9.88047 0.12614 38.30079
743 2 10.01712 2.15802 36.28732
744 2 7.91504 4.23104 40.27324
745 4 10.24671 5.27166 1.22845
746 2 10.00236 6.19003 40.35521
747 4 9.99754 5.64172 5.25380
748 4 10.36201 7.46029 3.07178
749 4 9.74838 6.01177 9.27916
750 4 10.11284 7.83034 7.09714
751 5 8.18736 7.00639 15.39304
752 4 9.86368 8.20040 11.12249
753 5 8.16850 4.79895 17.21735
754 5 8.12920 6.62333 19.42447
755 2 8.62782 6.32643 22.07015
756 2 10.58587 4.23753 22.13164
757 2 10.72252 6.26941 20.11817
758 2 8.49117 4.29455 24.08362
759 2 8.48379 6.31055 26.11756
760 2 10.44184 4.22166 26.17904
761 2 10.57849 6.25354 24.16558
762 2 8.34714 4.27867 28.13102
763 2 8.33975 6.29468 30.16497
764 2 10.29781 4.20578 30.22645
765 2 10.43446 6.23766 28.21299
766 2 8.20310 4.26280 32.17843
767 2 8.19572 6.27880 34.21237
768 2 10.15377 4.18990 34.27386
769 2 10.29042 6.22178 32.26039
770 2 8.05907 4.24692 36.22584
771 2 8.05169 6.26292 38.25978
772 2 10.00974 4.17402 38.32126
773 2 10.14639 6.20590 36.30780
774 2 8.04430 8.27893 40.29372
775 1 8.21263 9.52175 2.20501
776 4 10.72648 9.27886 0.88976
777 4 11.09095 11.09743 39.20774
778 1 8.12327 7.55939 4.28885
779 1 8.15578 9.64341 6.25278
780 4 10.47731 9.64891 4.91511
781 4 10.84178 11.46748 2.73309
782 1 8.09893 9.76507 10.30055
783 4 10.22815 10.01897 8.94047
784 4 10.59261 11.83754 6.75845
785 1 8.04208 9.88673 14.34833
786 4 9.97898 10.38903 12.96582
787 4 10.34345 12.20760 10.78380
788 5 8.14806 8.83077 17.60016
789 2 10.85918 8.30129 18.10471
790 4 10.09428 12.57765 14.80915
791 2 8.75709 10.37432 22.09063
792 2 10.71514 8.28542 22.15212
793 2 10.85179 10.31730 20.13865
794 2 8.62044 8.34244 24.10409
795 2 8.61306 10.35844 26.13804
796 2 10.57111 8.26954 26.19952
797 2 10.70776 10.30142 24.18606
798 2 8.47641 8.32656 28.15150
799 2 8.46902 10.34256 30.18544
800 2 10.42707 8.25366 30.24693
801 2 10.56373 10.28554 28.23347
802 2 8.33237 8.31068 32.19891
803 2 8.32499 10.32668 34.23285
804 2 10.28304 8.23779 34.29434
805 2 10.41969 10.26967 32.28087
806 2 8.18834 8.29480 36.24632
807 2 8.18096 10.31081 38.28026
808 2 10.13901 8.22191 38.34174
809 2 10.27566 10.25379 36.32828
810 1 8.30199 11.48412 0.12117
811 1 8.33450 13.56814 2.08510
812 4 11.20625 13.28605 0.55107
813 4 11.57072 15.10462 38.86905
814 1 8.24514 11.60578 4.16894
815 1 8.27765 13.68980 6.13288
816 4 10.95708 13.65611 4.57642
817 4 11.32155 15.47468 2.39440
818 1 8.18829 11.72743 8.21672
819 1 8.22080 13.81146 10.18065
820 4 10.70791 14.02616 8.60178
821 4 11.07238 15.84473 6.41976
822 1 8.13144 11.84909 12.26449
823 4 10.45875 14.39622 12.62713
824 4 10.82321 16.21479 10.44511
825 1 8.07459 11.97075 16.31226
826 1 8.10710 14.05477 18.27620
827 2 10.98844 12.34918 18.12519
828 4 10.57405 16.58485 14.47047
829 2 8.89374 12.40620 20.07717
830 2 8.88636 14.42220 22.11111
831 2 10.84441 12.33330 22.17260
832 2 10.98106 14.36518 20.15913
833 2 8.74971 12.39032 24.12457
834 2 8.74232 14.40632 26.15852
835 2 10.70038 12.31742 26.22000
836 2 10.83703 14.34931 24.20654
837 2 8.60567 12.37444 28.17198
838 2 8.59829 14.39045 30.20592
839 2 10.55634 12.30155 30.26741
840 2 10.69299 14.33343 28.25395
841 2 8.46164 12.35857 32.21939
842 2 8.45426 14.37457 34.25333
843 2 10.41231 12.28567 34.31482
844 2 10.54896 14.31755 32.30135
845 2 8.31761 12.34269 36.26679
846 1 8.39135 13.44648 38.53733
847 2 10.40493 14.30167 36.34876
848 1 8.42386 15.53051 0.00126
849 1 8.45637 17.61453 1.96520
850 4 11.68602 17.29325 0.21238
851 4 12.05048 19.11182 38.53036
852 1 8.36701 15.65217 4.04904
853 1 8.39952 17.73619 6.01297
854 4 11.43685 17.66330 4.23774
855 4 11.80132 19.48187 2.05571
856 1 8.31016 15.77382 8.09681
857 1 8.34267 17.85785 10.06075
858 4 11.18768 18.03336 8.26309
859 4 11.55215 19.85193 6.08107
860 1 8.25331 15.89548 12.14458
861 4 10.93851 18.40342 12.28844
862 4 11.30298 20.22199 10.10642
863 1 8.19646 16.01714 16.19236
864 5 8.27227 18.90062 16.74482
865 4 10.68935 18.77347 16.31380
866 5 8.25342 16.69318 18.56913
867 5 8.21412 18.51755 20.77625
868 2 10.97368 16.38119 22.19308
869 5 10.26796 18.71651 18.79045
870 5 8.15597 18.13449 24.80767
871 2 10.82965 16.36531 26.24048
872 2 8.73494 16.42233 28.19246
873 2 10.68561 16.34943 30.28789
874 2 8.59091 16.40645 32.23987
875 2 10.54158 16.33355 34.33530
876 1 8.51323 17.49287 38.41743
877 4 11.93518 16.92319 36.68703
878 1 8.57825 21.66092 1.84529
879 2 9.22675 22.40272 40.23233
880 1 8.48888 19.69856 3.92913
881 1 8.52139 21.78258 5.89307
882 4 11.91662 21.67050 3.89905
883 1 8.43203 19.82021 7.97691
884 5 8.36814 23.69856 9.06478
885 4 11.66745 22.04055 7.92440
886 1 8.37518 19.94187 12.02468
887 5 8.30999 23.31550 13.09621
888 5 10.34497 21.30701 12.93472
889 5 10.36383 23.51445 11.11041
890 5 8.29113 21.10806 14.92052
891 5 8.25183 22.93243 17.12763
892 5 10.30568 23.13139 15.14183
893 5 8.23298 20.72499 18.95194
894 5 8.19368 22.54937 21.15905
895 5 10.22867 20.54088 20.99756
896 5 10.24752 22.74832 19.17326
897 5 8.17482 20.34193 22.98336
898 5 8.13553 22.16630 25.19048
899 5 10.17051 20.15782 25.02899
900 5 10.18937 22.36526 23.20468
901 5 8.11667 19.95886 27.01479
902 5 8.07737 21.78324 29.22190
903 5 10.11236 19.77476 29.06041
904 5 10.13122 21.98220 27.23610
905 5 8.05852 19.57580 31.04621
906 2 9.37816 20.40259 34.15098
907 2 7.27608 22.47561 38.13690
908 2 9.23413 20.38672 38.19839
909 2 9.37078 22.41860 36.18492
910 2 7.26869 24.49162 40.17085
911 2 7.26131 26.50762 1.70479
912 2 9.21936 24.41872 1.76627
913 2 9.35602 26.45060 40.25281
914 2 7.12466 24.47574 3.71825
915 2 9.21198 26.43473 3.80022
916 5 8.38700 25.90600 7.24047
917 5 8.34770 27.73038 9.44759
918 5 10.38269 25.72189 9.28610
919 5 8.32885 25.52294 11.27190
920 5 8.28955 27.34731 13.47901
921 5 10.32453 25.33883 13.31752
922 5 10.34339 27.54627 11.49321
923 5 8.27069 25.13987 15.30332
924 5 8.23140 26.96425 17.51044
925 5 10.26638 24.95576 17.34895
926 5 10.28524 27.16320 15.52464
927 5 8.21254 24.75681 19.33475
928 5 8.17324 26.58118 21.54186
929 5 10.20823 24.57270 21.38037
930 5 10.22708 26.78014 19.55606
931 5 8.15439 24.37374 23.36617
932 5 8.11509 26.19812 25.57329
933 5 10.15007 24.18964 25.41179
934 5 10.16893 26.39708 23.58749
935 5 8.09623 23.99068 27.39759
936 5 8.05694 25.81506 29.60471
937 5 8.03808 23.60762 31.42902
938 2 9.50743 24.45048 34.17146
939 2 9.64408 26.48236 32.15800
940 2 7.40535 26.52350 38.15738
941 2 9.36340 24.43460 38.21887
942 2 9.50005 26.46648 36.20540
943 2 7.39796 28.53950 40.19132
944 2 7.39058 30.55551 1.72527
945 2 9.34863 28.46661 1.78675