ITEM: TIMESTEP
0
ITEM: NUMBER OF ATOMS
800
ITEM: BOX BOUNDS pp pp pp
0.0 100.0
0.0 100.0
0.0 100.0
ITEM: ATOMS id type x y z bondstrength
1 1 55.0000 50.0000 30.0000 1.0000
2 1 54.7553 51.5451 30.0000 1.0000
3 1 54.0451 52.9389 30.0000 1.0000
4 1 52.9389 54.0451 30.0000 1.0000
5 1 51.5451 54.7553 30.0000 1.0000
6 1 50.0000 55.0000 30.0000 1.0000
7 1 48.4549 54.7553 30.0000 1.0000
8 1 47.0611 54.0451 30.0000 1.0000
9 1 45.9549 52.9389 30.0000 1.0000
10 1 45.2447 51.5451 30.0000 1.0000
11 1 45.0000 50.0000 30.0000 1.0000
12 1 45.2447 48.4549 30.0000 1.0000
13 1 45.9549 47.0611 30.0000 1.0000
14 1 47.0611 45.9549 30.0000 1.0000
15 1 48.4549 45.2447 30.0000 1.0000
16 1 50.0000 45.0000 30.0000 1.0000
17 1 51.5451 45.2447 30.0000 1.0000
18 1 52.9389 45.9549 30.0000 1.0000
19 1 54.0451 47.0611 30.0000 1.0000
20 1 54.7553 48.4549 30.0000 1.0000
21 1 54.9384 50.7822 31.0000 1.0000
22 1 54.4550 52.2700 31.0000 1.0000
23 1 53.5355 53.5355 31.0000 1.0000
24 1 52.2700 54.4550 31.0000 1.0000
25 1 50.7822 54.9384 31.0000 1.0000
26 1 49.2178 54.9384 31.0000 1.0000
27 1 47.7300 54.4550 31.0000 1.0000
28 1 46.4645 53.5355 31.0000 1.0000
29 1 45.5450 52.2700 31.0000 1.0000
30 1 45.0616 50.7822 31.0000 1.0000
31 1 45.0616 49.2178 31.0000 1.0000
32 1 45.5450 47.7300 31.0000 1.0000
33 1 46.4645 46.4645 31.0000 1.0000
34 1 47.7300 45.5450 31.0000 1.0000
35 1 49.2178 45.0616 31.0000 1.0000
36 1 50.7822 45.0616 31.0000 1.0000
37 1 52.2700 45.5450 31.0000 1.0000
38 1 53.5355 46.4645 31.0000 1.0000
39 1 54.4550 47.7300 31.0000 1.0000
40 1 54.9384 49.2178 31.0000 1.0000
41 1 55.0000 50.0000 32.0000 1.0000
42 1 54.7553 51.5451 32.0000 1.0000
43 1 54.0451 52.9389 32.0000 1.0000
44 1 52.9389 54.0451 32.0000 1.0000
45 1 51.5451 54.7553 32.0000 1.0000
46 1 50.0000 55.0000 32.0000 1.0000
47 1 48.4549 54.7553 32.0000 1.0000
48 1 47.0611 54.0451 32.0000 1.0000
49 1 45.9549 52.9389 32.0000 1.0000
50 1 45.2447 51.5451 32.0000 1.0000
51 1 45.0000 50.0000 32.0000 1.0000
52 1 45.2447 48.4549 32.0000 1.0000
53 1 45.9549 47.0611 32.0000 1.0000
54 1 47.0611 45.9549 32.0000 1.0000
55 1 48.4549 45.2447 32.0000 1.0000
56 1 50.0000 45.0000 32.0000 1.0000
57 1 51.5451 45.2447 32.0000 1.0000
58 1 52.9389 45.9549 32.0000 1.0000
59 1 54.0451 47.0611 32.0000 1.0000
60 1 54.7553 48.4549 32.0000 1.0000
61 1 54.9384 50.7822 33.0000 1.0000
62 1 54.4550 52.2700 33.0000 1.0000
63 1 53.5355 53.5355 33.0000 1.0000
64 1 52.2700 54.4550 33.0000 1.0000
65 1 50.7822 54.9384 33.0000 1.0000
66 1 49.2178 54.9384 33.0000 1.0000
67 1 47.7300 54.4550 33.0000 1.0000
68 1 46.4645 53.5355 33.0000 1.0000
69 1 45.5450 52.2700 33.0000 1.0000
70 1 45.0616 50.7822 33.0000 1.0000
71 1 45.0616 49.2178 33.0000 1.0000
72 1 45.5450 47.7300 33.0000 1.0000
73 1 46.4645 46.4645 33.0000 1.0000
74 1 47.7300 45.5450 33.0000 1.0000
75 1 49.2178 45.0616 33.0000 1.0000
76 1 50.7822 45.0616 33.0000 1.0000
77 1 52.2700 45.5450 33.0000 1.0000
78 1 53.5355 46.4645 33.0000 1.0000
79 1 54.4550 47.7300 33.0000 1.0000
80 1 54.9384 49.2178 33.0000 1.0000
81 1 55.0000 50.0000 34.0000 1.0000
82 1 54.7553 51.5451 34.0000 1.0000
83 1 54.0451 52.9389 34.0000 1.0000
84 1 52.9389 54.0451 34.0000 1.0000
85 1 51.5451 54.7553 34.0000 1.0000
86 1 50.0000 55.0000 34.0000 1.0000
87 1 48.4549 54.7553 34.0000 1.0000
88 1 47.0611 54.0451 34.0000 1.0000
89 1 45.9549 52.9389 34.0000 1.0000
90 1 45.2447 51.5451 34.0000 1.0000
91 1 45.0000 50.0000 34.0000 1.0000
92 1 45.2447 48.4549 34.0000 1.0000
93 1 45.9549 47.0611 34.0000 1.0000
94 1 47.0611 45.9549 34.0000 1.0000
95 1 48.4549 45.2447 34.0000 1.0000
96 1 50.0000 45.0000 34.0000 1.0000
97 1 51.5451 45.2447 34.0000 1.0000
98 1 52.9389 45.9549 34.0000 1.0000
99 1 54.0451 47.0611 34.0000 1.0000
100 1 54.7553 48.4549 34.0000 1.0000
101 1 54.9384 50.7822 35.0000 1.0000
102 1 54.4550 52.2700 35.0000 1.0000
103 1 53.5355 53.5355 35.0000 1.0000
104 1 52.2700 54.4550 35.0000 1.0000
105 1 50.7822 54.9384 35.0000 1.0000
106 1 49.2178 54.9384 35.0000 1.0000
107 1 47.7300 54.4550 35.0000 1.0000
108 1 46.4645 53.5355 35.0000 1.0000
109 1 45.5450 52.2700 35.0000 1.0000
110 1 45.0616 50.7822 35.0000 1.0000
111 1 45.0616 49.2178 35.0000 1.0000
112 1 45.5450 47.7300 35.0000 1.0000
113 1 46.4645 46.4645 35.0000 1.0000
114 1 47.7300 45.5450 35.0000 1.0000
115 1 49.2178 45.0616 35.0000 1.0000
116 1 50.7822 45.0616 35.0000 1.0000
117 1 52.2700 45.5450 35.0000 1.0000
118 1 53.5355 46.4645 35.0000 1.0000
119 1 54.4550 47.7300 35.0000 1.0000
120 1 54.9384 49.2178 35.0000 1.0000
121 1 55.0000 50.0000 36.0000 1.0000
122 1 54.7553 51.5451 36.0000 1.0000
123 1 54.0451 52.9389 36.0000 1.0000
124 1 52.9389 54.0451 36.0000 1.0000
125 1 51.5451 54.7553 36.0000 1.0000
126 1 50.0000 55.0000 36.0000 1.0000
127 1 48.4549 54.7553 36.0000 1.0000
128 1 47.0611 54.0451 36.0000 1.0000
129 1 45.9549 52.9389 36.0000 1.0000
130 1 45.2447 51.5451 36.0000 1.0000
131 1 45.0000 50.0000 36.0000 1.0000
132 1 45.2447 48.4549 36.0000 1.0000
133 1 45.9549 47.0611 36.0000 1.0000
134 1 47.0611 45.9549 36.0000 1.0000
135 1 48.4549 45.2447 36.0000 1.0000
136 1 50.0000 45.0000 36.0000 1.0000
137 1 51.5451 45.2447 36.0000 1.0000
138 1 52.9389 45.9549 36.0000 1.0000
139 1 54.0451 47.0611 36.0000 1.0000
140 1 54.7553 48.4549 36.0000 1.0000
141 1 54.9384 50.7822 37.0000 1.0000
142 1 54.4550 52.2700 37.0000 1.0000
143 1 53.5355 53.5355 37.0000 1.0000
144 1 52.2700 54.4550 37.0000 1.0000
145 1 50.7822 54.9384 37.0000 1.0000
146 1 49.2178 54.9384 37.0000 1.0000
147 1 47.7300 54.4550 37.0000 1.0000
148 1 46.4645 53.5355 37.0000 1.0000
149 1 45.5450 52.2700 37.0000 1.0000
150 1 45.0616 50.7822 37.0000 1.0000
151 1 45.0616 49.2178 37.0000 1.0000
152 1 45.5450 47.7300 37.0000 1.0000
153 1 46.4645 46.4645 37.0000 1.0000
154 1 47.7300 45.5450 37.0000 1.0000
155 1 49.2178 45.0616 37.0000 1.0000
156 1 50.7822 45.0616 37.0000 1.0000
157 1 52.2700 45.5450 37.0000 1.0000
158 1 53.5355 46.4645 37.0000 1.0000
159 1 54.4550 47.7300 37.0000 1.0000
160 1 54.9384 49.2178 37.0000 1.0000
161 1 55.0000 50.0000 38.0000 1.0000
162 1 54.7553 51.5451 38.0000 1.0000
163 1 54.0451 52.9389 38.0000 1.0000
164 1 52.9389 54.0451 38.0000 1.0000
165 1 51.5451 54.7553 38.0000 1.0000
166 1 50.0000 55.0000 38.0000 1.0000
167 1 48.4549 54.7553 38.0000 1.0000
168 1 47.0611 54.0451 38.0000 1.0000
169 1 45.9549 52.9389 38.0000 1.0000
170 1 45.2447 51.5451 38.0000 1.0000
171 1 45.0000 50.0000 38.0000 1.0000
172 1 45.2447 48.4549 38.0000 1.0000
173 1 45.9549 47.0611 38.0000 1.0000
174 1 47.0611 45.9549 38.0000 1.0000
175 1 48.4549 45.2447 38.0000 1.0000
176 1 50.0000 45.0000 38.0000 1.0000
177 1 51.5451 45.2447 38.0000 1.0000
178 1 52.9389 45.9549 38.0000 1.0000
179 1 54.0451 47.0611 38.0000 1.0000
180 1 54.7553 48.4549 38.0000 1.0000
181 1 54.9384 50.7822 39.0000 1.0000
182 1 54.4550 52.2700 39.0000 1.0000
183 1 53.5355 53.5355 39.0000 1.0000
184 1 52.2700 54.4550 39.0000 1.0000
185 1 50.7822 54.9384 39.0000 1.0000
186 1 49.2178 54.9384 39.0000 1.0000
187 1 47.7300 54.4550 39.0000 1.0000
188 1 46.4645 53.5355 39.0000 1.0000
189 1 45.5450 52.2700 39.0000 1.0000
190 1 45.0616 50.7822 39.0000 1.0000
191 1 45.0616 49.2178 39.0000 1.0000
192 1 45.5450 47.7300 39.0000 1.0000
193 1 46.4645 46.4645 39.0000 1.0000
194 1 47.7300 45.5450 39.0000 1.0000
195 1 49.2178 45.0616 39.0000 1.0000
196 1 50.7822 45.0616 39.0000 1.0000
197 1 52.2700 45.5450 39.0000 1.0000
198 1 53.5355 46.4645 39.0000 1.0000
199 1 54.4550 47.7300 39.0000 1.0000
200 1 54.9384 49.2178 39.0000 1.0000
201 1 55.0000 50.0000 40.0000 1.0000
202 1 54.7553 51.5451 40.0000 1.0000
203 1 54.0451 52.9389 40.0000 1.0000
204 1 52.9389 54.0451 40.0000 1.0000
205 1 51.5451 54.7553 40.0000 1.0000
206 1 50.0000 55.0000 40.0000 1.0000
207 1 48.4549 54.7553 40.0000 1.0000
208 1 47.0611 54.0451 40.0000 1.0000
209 1 45.9549 52.9389 40.0000 1.0000
210 1 45.2447 51.5451 40.0000 1.0000
211 1 45.0000 50.0000 40.0000 1.0000
212 1 45.2447 48.4549 40.0000 1.0000
213 1 45.9549 47.0611 40.0000 1.0000
214 1 47.0611 45.9549 40.0000 1.0000
215 1 48.4549 45.2447 40.0000 1.0000
216 1 50.0000 45.0000 40.0000 1.0000
217 1 51.5451 45.2447 40.0000 1.0000
218 1 52.9389 45.9549 40.0000 1.0000
219 1 54.0451 47.0611 40.0000 1.0000
220 1 54.7553 48.4549 40.0000 1.0000
221 1 54.9384 50.7822 41.0000 1.0000
222 1 54.4550 52.2700 41.0000 1.0000
223 1 53.5355 53.5355 41.0000 1.0000
224 1 52.2700 54.4550 41.0000 1.0000
225 1 50.7822 54.9384 41.0000 1.0000
226 1 49.2178 54.9384 41.0000 1.0000
227 1 47.7300 54.4550 41.0000 1.0000
228 1 46.4645 53.5355 41.0000 1.0000
229 1 45.5450 52.2700 41.0000 1.0000
230 1 45.0616 50.7822 41.0000 1.0000
231 1 45.0616 49.2178 41.0000 1.0000
232 1 45.5450 47.7300 41.0000 1.0000
233 1 46.4645 46.4645 41.0000 1.0000
234 1 47.7300 45.5450 41.0000 1.0000
235 1 49.2178 45.0616 41.0000 1.0000
236 1 50.7822 45.0616 41.0000 1.0000
237 1 52.2700 45.5450 41.0000 1.0000
238 1 53.5355 46.4645 41.0000 1.0000
239 1 54.4550 47.7300 41.0000 1.0000
240 1 54.9384 49.2178 41.0000 1.0000
241 1 55.0000 50.0000 42.0000 1.0000
242 1 54.7553 51.5451 42.0000 1.0000
243 1 54.0451 52.9389 42.0000 1.0000
244 1 52.9389 54.0451 42.0000 1.0000
245 1 51.5451 54.7553 42.0000 1.0000
246 1 50.0000 55.0000 42.0000 1.0000
247 1 48.4549 54.7553 42.0000 1.0000
248 1 47.0611 54.0451 42.0000 1.0000
249 1 45.9549 52.9389 42.0000 1.0000
250 1 45.2447 51.5451 42.0000 1.0000
251 1 45.0000 50.0000 42.0000 1.0000
252 1 45.2447 48.4549 42.0000 1.0000
253 1 45.9549 47.0611 42.0000 1.0000
254 1 47.0611 45.9549 42.0000 1.0000
255 1 48.4549 45.2447 42.0000 1.0000
256 1 50.0000 45.0000 42.0000 1.0000
257 1 51.5451 45.2447 42.0000 1.0000
258 1 52.9389 45.9549 42.0000 1.0000
259 1 54.0451 47.0611 42.0000 1.0000
260 1 54.7553 48.4549 42.0000 1.0000
261 1 54.9384 50.7822 43.0000 1.0000
262 1 54.4550 52.2700 43.0000 1.0000
263 1 53.5355 53.5355 43.0000 1.0000
264 1 52.2700 54.4550 43.0000 1.0000
265 1 50.7822 54.9384 43.0000 1.0000
266 1 49.2178 54.9384 43.0000 1.0000
267 1 47.7300 54.4550 43.0000 1.0000
268 1 46.4645 53.5355 43.0000 1.0000
269 1 45.5450 52.2700 43.0000 1.0000
270 1 45.0616 50.7822 43.0000 1.0000
271 1 45.0616 49.2178 43.0000 1.0000
272 1 45.5450 47.7300 43.0000 1.0000
273 1 46.4645 46.4645 43.0000 1.0000
274 1 47.7300 45.5450 43.0000 1.0000
275 1 49.2178 45.0616 43.0000 1.0000
276 1 50.7822 45.0616 43.0000 1.0000
277 1 52.2700 45.5450 43.0000 1.0000
278 1 53.5355 46.4645 43.0000 1.0000
279 1 54.4550 47.7300 43.0000 1.0000
280 1 54.9384 49.2178 43.0000 1.0000
281 1 55.0000 50.0000 44.0000 1.0000
282 1 54.7553 51.5451 44.0000 1.0000
283 1 54.0451 52.9389 44.0000 1.0000
284 1 52.9389 54.0451 44.0000 1.0000
285 1 51.5451 54.7553 44.0000 1.0000
286 1 50.0000 55.0000 44.0000 1.0000
287 1 48.4549 54.7553 44.0000 1.0000
288 1 47.0611 54.0451 44.0000 1.0000
289 1 45.9549 52.9389 44.0000 1.0000
290 1 45.2447 51.5451 44.0000 1.0000
291 1 45.0000 50.0000 44.0000 1.0000
292 1 45.2447 48.4549 44.0000 1.0000
293 1 45.9549 47.0611 44.0000 1.0000
294 1 47.0611 45.9549 44.0000 1.0000
295 1 48.4549 45.2447 44.0000 1.0000
296 1 50.0000 45.0000 44.0000 1.0000
297 1 51.5451 45.2447 44.0000 1.0000
298 1 52.9389 45.9549 44.0000 1.0000
299 1 54.0451 47.0611 44.0000 1.0000
300 1 54.7553 48.4549 44.0000 1.0000
301 1 54.9384 50.7822 45.0000 1.0000
302 1 54.4550 52.2700 45.0000 1.0000
303 1 53.5355 53.5355 45.0000 1.0000
304 1 52.2700 54.4550 45.0000 1.0000
305 1 50.7822 54.9384 45.0000 1.0000
306 1 49.2178 54.9384 45.0000 1.0000
307 1 47.7300 54.4550 45.0000 1.0000
308 1 46.4645 53.5355 45.0000 1.0000
309 1 45.5450 52.2700 45.0000 1.0000
310 1 45.0616 50.7822 45.0000 1.0000
311 1 45.0616 49.2178 45.0000 1.0000
312 1 45.5450 47.7300 45.0000 1.0000
313 1 46.4645 46.4645 45.0000 1.0000
314 1 47.7300 45.5450 45.0000 1.0000
315 1 49.2178 45.0616 45.0000 1.0000
316 1 50.7822 45.0616 45.0000 1.0000
317 1 52.2700 45.5450 45.0000 1.0000
318 1 53.5355 46.4645 45.0000 1.0000
319 1 54.4550 47.7300 45.0000 1.0000
320 1 54.9384 49.2178 45.0000 1.0000
321 1 55.0000 50.0000 46.0000 1.0000
322 1 54.7553 51.5451 46.0000 1.0000
323 1 54.0451 52.9389 46.0000 1.0000
324 1 52.9389 54.0451 46.0000 1.0000
325 1 51.5451 54.7553 46.0000 1.0000
326 1 50.0000 55.0000 46.0000 1.0000
327 1 48.4549 54.7553 46.0000 1.0000
328 1 47.0611 54.0451 46.0000 1.0000
329 1 45.9549 52.9389 46.0000 1.0000
330 1 45.2447 51.5451 46.0000 1.0000
331 1 45.0000 50.0000 46.0000 1.0000
332 1 45.2447 48.4549 46.0000 1.0000
333 1 45.9549 47.0611 46.0000 1.0000
334 1 47.0611 45.9549 46.0000 1.0000
335 1 48.4549 45.2447 46.0000 1.0000
336 1 50.0000 45.0000 46.0000 1.0000
337 1 51.5451 45.2447 46.0000 1.0000
338 1 52.9389 45.9549 46.0000 1.0000
339 1 54.0451 47.0611 46.0000 1.0000
340 1 54.7553 48.4549 46.0000 1.0000
341 1 54.9384 50.7822 47.0000 1.0000
342 1 54.4550 52.2700 47.0000 1.0000
343 1 53.5355 53.5355 47.0000 1.0000
344 1 52.2700 54.4550 47.0000 1.0000
345 1 50.7822 54.9384 47.0000 1.0000
346 1 49.2178 54.9384 47.0000 1.0000
347 1 47.7300 54.4550 47.0000 1.0000
348 1 46.4645 53.5355 47.0000 1.0000
349 1 45.5450 52.2700 47.0000 1.0000
350 1 45.0616 50.7822 47.0000 1.0000
351 1 45.0616 49.2178 47.0000 1.0000
352 1 45.5450 47.7300 47.0000 1.0000
353 1 46.4645 46.4645 47.0000 1.0000
354 1 47.7300 45.5450 47.0000 1.0000
355 1 49.2178 45.0616 47.0000 1.0000
356 1 50.7822 45.0616 47.0000 1.0000
357 1 52.2700 45.5450 47.0000 1.0000
358 1 53.5355 46.4645 47.0000 1.0000
359 1 54.4550 47.7300 47.0000 1.0000
360 1 54.9384 49.2178 47.0000 1.0000
361 1 55.0000 50.0000 48.0000 1.0000
362 1 54.7553 51.5451 48.0000 1.0000
363 1 54.0451 52.9389 48.0000 1.0000
364 1 52.9389 54.0451 48.0000 1.0000
365 1 51.5451 54.7553 48.0000 1.0000
366 1 50.0000 55.0000 48.0000 1.0000
367 1 48.4549 54.7553 48.0000 1.0000
368 1 47.0611 54.0451 48.0000 1.0000
369 1 45.9549 52.9389 48.0000 1.0000
370 1 45.2447 51.5451 48.0000 1.0000
371 1 45.0000 50.0000 48.0000 1.0000
372 1 45.2447 48.4549 48.0000 1.0000
373 1 45.9549 47.0611 48.0000 1.0000
374 1 47.0611 45.9549 48.0000 1.0000
375 1 48.4549 45.2447 48.0000 1.0000
376 1 50.0000 45.0000 48.0000 1.0000
377 1 51.5451 45.2447 48.0000 1.0000
378 1 52.9389 45.9549 48.0000 1.0000
379 1 54.0451 47.0611 48.0000 1.0000
380 1 54.7553 48.4549 48.0000 1.0000
381 1 54.9384 50.7822 49.0000 1.0000
382 1 54.4550 52.2700 49.0000 1.0000
383 1 53.5355 53.5355 49.0000 1.0000
384 1 52.2700 54.4550 49.0000 1.0000
385 1 50.7822 54.9384 49.0000 1.0000
386 1 49.2178 54.9384 49.0000 1.0000
387 1 47.7300 54.4550 49.0000 1.0000
388 1 46.4645 53.5355 49.0000 1.0000
389 1 45.5450 52.2700 49.0000 1.0000
390 1 45.0616 50.7822 49.0000 1.0000
391 1 45.0616 49.2178 49.0000 1.0000
392 1 45.5450 47.7300 49.0000 1.0000
393 1 46.4645 46.4645 49.0000 1.0000
394 1 47.7300 45.5450 49.0000 1.0000
395 1 49.2178 45.0616 49.0000 1.0000
396 1 50.7822 45.0616 49.0000 1.0000
397 1 52.2700 45.5450 49.0000 1.0000
398 1 53.5355 46.4645 49.0000 1.0000
399 1 54.4550 47.7300 49.0000 1.0000
400 1 54.9384 49.2178 49.0000 1.0000
401 1 55.0000 50.0000 50.0000 1.0000
402 1 54.7553 51.5451 50.0000 1.0000
403 1 54.0451 52.9389 50.0000 1.0000
404 1 52.9389 54.0451 50.0000 1.0000
405 1 51.5451 54.7553 50.0000 1.0000
406 1 50.0000 55.0000 50.0000 1.0000
407 1 48.4549 54.7553 50.0000 1.0000
408 1 47.0611 54.0451 50.0000 1.0000
409 1 45.9549 52.9389 50.0000 1.0000
410 1 45.2447 51.5451 50.0000 1.0000
411 1 45.0000 50.0000 50.0000 1.0000
412 1 45.2447 48.4549 50.0000 1.0000
413 1 45.9549 47.0611 50.0000 1.0000
414 1 47.0611 45.9549 50.0000 1.0000
415 1 48.4549 45.2447 50.0000 1.0000
416 1 50.0000 45.0000 50.0000 1.0000
417 1 51.5451 45.2447 50.0000 1.0000
418 1 52.9389 45.9549 50.0000 1.0000
419 1 54.0451 47.0611 50.0000 1.0000
420 1 54.7553 48.4549 50.0000 1.0000
421 1 54.9384 50.7822 51.0000 1.0000
422 1 54.4550 52.2700 51.0000 1.0000
423 1 53.5355 53.5355 51.0000 1.0000
424 1 52.2700 54.4550 51.0000 1.0000
425 1 50.7822 54.9384 51.0000 1.0000
426 1 49.2178 54.9384 51.0000 1.0000
427 1 47.7300 54.4550 51.0000 1.0000
428 1 46.4645 53.5355 51.0000 1.0000
429 1 45.5450 52.2700 51.0000 1.0000
430 1 45.0616 50.7822 51.0000 1.0000
431 1 45.0616 49.2178 51.0000 1.0000
432 1 45.5450 47.7300 51.0000 1.0000
433 1 46.4645 46.4645 51.0000 1.0000
434 1 47.7300 45.5450 51.0000 1.0000
435 1 49.2178 45.0616 51.0000 1.0000
436 1 50.7822 45.0616 51.0000 1.0000
437 1 52.2700 45.5450 51.0000 1.0000
438 1 53.5355 46.4645 51.0000 1.0000
439 1 54.4550 47.7300 51.0000 1.0000
440 1 54.9384 49.2178 51.0000 1.0000
441 1 55.0000 50.0000 52.0000 1.0000
442 1 54.7553 51.5451 52.0000 1.0000
443 1 54.0451 52.9389 52.0000 1.0000
444 1 52.9389 54.0451 52.0000 1.0000
445 1 51.5451 54.7553 52.0000 1.0000
446 1 50.0000 55.0000 52.0000 1.0000
447 1 48.4549 54.7553 52.0000 1.0000
448 1 47.0611 54.0451 52.0000 1.0000
449 1 45.9549 52.9389 52.0000 1.0000
450 1 45.2447 51.5451 52.0000 1.0000
451 1 45.0000 50.0000 52.0000 1.0000
452 1 45.2447 48.4549 52.0000 1.0000
453 1 45.9549 47.0611 52.0000 1.0000
454 1 47.0611 45.9549 52.0000 1.0000
455 1 48.4549 45.2447 52.0000 1.0000
456 1 50.0000 45.0000 52.0000 1.0000
457 1 51.5451 45.2447 52.0000 1.0000
458 1 52.9389 45.9549 52.0000 1.0000
459 1 54.0451 47.0611 52.0000 1.0000
460 1 54.7553 48.4549 52.0000 1.0000
461 1 54.9384 50.7822 53.0000 1.0000
462 1 54.4550 52.2700 53.0000 1.0000
463 1 53.5355 53.5355 53.0000 1.0000
464 1 52.2700 54.4550 53.0000 1.0000
465 1 50.7822 54.9384 53.0000 1.0000
466 1 49.2178 54.9384 53.0000 1.0000
467 1 47.7300 54.4550 53.0000 1.0000
468 1 46.4645 53.5355 53.0000 1.0000
469 1 45.5450 52.2700 53.0000 1.0000
470 1 45.0616 50.7822 53.0000 1.0000
471 1 45.0616 49.2178 53.0000 1.0000
472 1 45.5450 47.7300 53.0000 1.0000
473 1 46.4645 46.4645 53.0000 1.0000
474 1 47.7300 45.5450 53.0000 1.0000
475 1 49.2178 45.0616 53.0000 1.0000
476 1 50.7822 45.0616 53.0000 1.0000
477 1 52.2700 45.5450 53.0000 1.0000
478 1 53.5355 46.4645 53.0000 1.0000
479 1 54.4550 47.7300 53.0000 1.0000
480 1 54.9384 49.2178 53.0000 1.0000
481 1 55.0000 50.0000 54.0000 1.0000
482 1 54.7553 51.5451 54.0000 1.0000
483 1 54.0451 52.9389 54.0000 1.0000
484 1 52.9389 54.0451 54.0000 1.0000
485 1 51.5451 54.7553 54.0000 1.0000
486 1 50.0000 55.0000 54.0000 1.0000
487 1 48.4549 54.7553 54.0000 1.0000
488 1 47.0611 54.0451 54.0000 1.0000
489 1 45.9549 52.9389 54.0000 1.0000
490 1 45.2447 51.5451 54.0000 1.0000
491 1 45.0000 50.0000 54.0000 1.0000
492 1 45.2447 48.4549 54.0000 1.0000
493 1 45.9549 47.0611 54.0000 1.0000
494 1 47.0611 45.9549 54.0000 1.0000
495 1 48.4549 45.2447 54.0000 1.0000
496 1 50.0000 45.0000 54.0000 1.0000
497 1 51.5451 45.2447 54.0000 1.0000
498 1 52.9389 45.9549 54.0000 1.0000
499 1 54.0451 47.0611 54.0000 1.0000
500 1 54.7553 48.4549 54.0000 1.0000
501 1 54.9384 50.7822 55.0000 1.0000
502 1 54.4550 52.2700 55.0000 1.0000
503 1 53.5355 53.5355 55.0000 1.0000
504 1 52.2700 54.4550 55.0000 1.0000
505 1 50.7822 54.9384 55.0000 1.0000
506 1 49.2178 54.9384 55.0000 1.0000
507 1 47.7300 54.4550 55.0000 1.0000
508 1 46.4645 53.5355 55.0000 1.0000
509 1 45.5450 52.2700 55.0000 1.0000
510 1 45.0616 50.7822 55.0000 1.0000
511 1 45.0616 49.2178 55.0000 1.0000
512 1 45.5450 47.7300 55.0000 1.0000
513 1 46.4645 46.4645 55.0000 1.0000
514 1 47.7300 45.5450 55.0000 1.0000
515 1 49.2178 45.0616 55.0000 1.0000
516 1 50.7822 45.0616 55.0000 1.0000
517 1 52.2700 45.5450 55.0000 1.0000
518 1 53.5355 46.4645 55.0000 1.0000
519 1 54.4550 47.7300 55.0000 1.0000
520 1 54.9384 49.2178 55.0000 1.0000
521 1 55.0000 50.0000 56.0000 1.0000
522 1 54.7553 51.5451 56.0000 1.0000
523 1 54.0451 52.9389 56.0000 1.0000
524 1 52.9389 54.0451 56.0000 1.0000
525 1 51.5451 54.7553 56.0000 1.0000
526 1 50.0000 55.0000 56.0000 1.0000
527 1 48.4549 54.7553 56.0000 1.0000
528 1 47.0611 54.0451 56.0000 1.0000
529 1 45.9549 52.9389 56.0000 1.0000
530 1 45.2447 51.5451 56.0000 1.0000
531 1 45.0000 50.0000 56.0000 1.0000
532 1 45.2447 48.4549 56.0000 1.0000
533 1 45.9549 47.0611 56.0000 1.0000
534 1 47.0611 45.9549 56.0000 1.0000
535 1 48.4549 45.2447 56.0000 1.0000
536 1 50.0000 45.0000 56.0000 1.0000
537 1 51.5451 45.2447 56.0000 1.0000
538 1 52.9389 45.9549 56.0000 1.0000
539 1 54.0451 47.0611 56.0000 1.0000
540 1 54.7553 48.4549 56.0000 1.0000
541 1 54.9384 50.7822 57.0000 1.0000
542 1 54.4550 52.2700 57.0000 1.0000
543 1 53.5355 53.5355 57.0000 1.0000
544 1 52.2700 54.4550 57.0000 1.0000
545 1 50.7822 54.9384 57.0000 1.0000
546 1 49.2178 54.9384 57.0000 1.0000
547 1 47.7300 54.4550 57.0000 1.0000
548 1 46.4645 53.5355 57.0000 1.0000
549 1 45.5450 52.2700 57.0000 1.0000
550 1 45.0616 50.7822 57.0000 1.0000
551 1 45.0616 49.2178 57.0000 1.0000
552 1 45.5450 47.7300 57.0000 1.0000
553 1 46.4645 46.4645 57.0000 1.0000
554 1 47.7300 45.5450 57.0000 1.0000
555 1 49.2178 45.0616 57.0000 1.0000
556 1 50.7822 45.0616 57.0000 1.0000
557 1 52.2700 45.5450 57.0000 1.0000
558 1 53.5355 46.4645 57.0000 1.0000
559 1 54.4550 47.7300 57.0000 1.0000
560 1 54.9384 49.2178 57.0000 1.0000
561 1 55.0000 50.0000 58.0000 1.0000
562 1 54.7553 51.5451 58.0000 1.0000
563 1 54.0451 52.9389 58.0000 1.0000
564 1 52.9389 54.0451 58.0000 1.0000
565 1 51.5451 54.7553 58.0000 1.0000
566 1 50.0000 55.0000 58.0000 1.0000
567 1 48.4549 54.7553 58.0000 1.0000
568 1 47.0611 54.0451 58.0000 1.0000
569 1 45.9549 52.9389 58.0000 1.0000
570 1 45.2447 51.5451 58.0000 1.0000
571 1 45.0000 50.0000 58.0000 1.0000
572 1 45.2447 48.4549 58.0000 1.0000
573 1 45.9549 47.0611 58.0000 1.0000
574 1 47.0611 45.9549 58.0000 1.0000
575 1 48.4549 45.2447 58.0000 1.0000
576 1 50.0000 45.0000 58.0000 1.0000
577 1 51.5451 45.2447 58.0000 1.0000
578 1 52.9389 45.9549 58.0000 1.0000
579 1 54.0451 47.0611 58.0000 1.0000
580 1 54.7553 48.4549 58.0000 1.0000
581 1 54.9384 50.7822 59.0000 1.0000
582 1 54.4550 52.2700 59.0000 1.0000
583 1 53.5355 53.5355 59.0000 1.0000
584 1 52.2700 54.4550 59.0000 1.0000
585 1 50.7822 54.9384 59.0000 1.0000
586 1 49.2178 54.9384 59.0000 1.0000
587 1 47.7300 54.4550 59.0000 1.0000
588 1 46.4645 53.5355 59.0000 1.0000
589 1 45.5450 52.2700 59.0000 1.0000
590 1 45.0616 50.7822 59.0000 1.0000
591 1 45.0616 49.2178 59.0000 1.0000
592 1 45.5450 47.7300 59.0000 1.0000
593 1 46.4645 46.4645 59.0000 1.0000
594 1 47.7300 45.5450 59.0000 1.0000
595 1 49.2178 45.0616 59.0000 1.0000
596 1 50.7822 45.0616 59.0000 1.0000
597 1 52.2700 45.5450 59.0000 1.0000
598 1 53.5355 46.4645 59.0000 1.0000
599 1 54.4550 47.7300 59.0000 1.0000
600 1 54.9384 49.2178 59.0000 1.0000
601 1 55.0000 50.0000 60.0000 1.0000
602 1 54.7553 51.5451 60.0000 1.0000
603 1 54.0451 52.9389 60.0000 1.0000
604 1 52.9389 54.0451 60.0000 1.0000
605 1 51.5451 54.7553 60.0000 1.0000
606 1 50.0000 55.0000 60.0000 1.0000
607 1 48.4549 54.7553 60.0000 1.0000
608 1 47.0611 54.0451 60.0000 1.0000
609 1 45.9549 52.9389 60.0000 1.0000
610 1 45.2447 51.5451 60.0000 1.0000
611 1 45.0000 50.0000 60.0000 1.0000
612 1 45.2447 48.4549 60.0000 1.0000
613 1 45.9549 47.0611 60.0000 1.0000
614 1 47.0611 45.9549 60.0000 1.0000
615 1 48.4549 45.2447 60.0000 1.0000
616 1 50.0000 45.0000 60.0000 1.0000
617 1 51.5451 45.2447 60.0000 1.0000
618 1 52.9389 45.9549 60.0000 1.0000
619 1 54.0451 47.0611 60.0000 1.0000
620 1 54.7553 48.4549 60.0000 1.0000
621 1 54.9384 50.7822 61.0000 1.0000
622 1 54.4550 52.2700 61.0000 1.0000
623 1 53.5355 53.5355 61.0000 1.0000
624 1 52.2700 54.4550 61.0000 1.0000
625 1 50.7822 54.9384 61.0000 1.0000
626 1 49.2178 54.9384 61.0000 1.0000
627 1 47.7300 54.4550 61.0000 1.0000
628 1 46.4645 53.5355 61.0000 1.0000
629 1 45.5450 52.2700 61.0000 1.0000
630 1 45.0616 50.7822 61.0000 1.0000
631 1 45.0616 49.2178 61.0000 1.0000
632 1 45.5450 47.7300 61.0000 1.0000
633 1 46.4645 46.4645 61.0000 1.0000
634 1 47.7300 45.5450 61.0000 1.0000
635 1 49.2178 45.0616 61.0000 1.0000
636 1 50.7822 45.0616 61.0000 1.0000
637 1 52.2700 45.5450 61.0000 1.0000
638 1 53.5355 46.4645 61.0000 1.0000
639 1 54.4550 47.7300 61.0000 1.0000
640 1 54.9384 49.2178 61.0000 1.0000
641 1 55.0000 50.0000 62.0000 1.0000
642 1 54.7553 51.5451 62.0000 1.0000
643 1 54.0451 52.9389 62.0000 1.0000
644 1 52.9389 54.0451 62.0000 1.0000
645 1 51.5451 54.7553 62.0000 1.0000
646 1 50.0000 55.0000 62.0000 1.0000
647 1 48.4549 54.7553 62.0000 1.0000
648 1 47.0611 54.0451 62.0000 1.0000
649 1 45.9549 52.9389 62.0000 1.0000
650 1 45.2447 51.5451 62.0000 1.0000
651 1 45.0000 50.0000 62.0000 1.0000
652 1 45.2447 48.4549 62.0000 1.0000
653 1 45.9549 47.0611 62.0000 1.0000
654 1 47.0611 45.9549 62.0000 1.0000
655 1 48.4549 45.2447 62.0000 1.0000
656 1 50.0000 45.0000 62.0000 1.0000
657 1 51.5451 45.2447 62.0000 1.0000
658 1 52.9389 45.9549 62.0000 1.0000
659 1 54.0451 47.0611 62.0000 1.0000
660 1 54.7553 48.4549 62.0000 1.0000
661 1 54.9384 50.7822 63.0000 1.0000
662 1 54.4550 52.2700 63.0000 1.0000
663 1 53.5355 53.5355 63.0000 1.0000
664 1 52.2700 54.4550 63.0000 1.0000
665 1 50.7822 54.9384 63.0000 1.0000
666 1 49.2178 54.9384 63.0000 1.0000
667 1 47.7300 54.4550 63.0000 1.0000
668 1 46.4645 53.5355 63.0000 1.0000
669 1 45.5450 52.2700 63.0000 1.0000
670 1 45.0616 50.7822 63.0000 1.0000
671 1 45.0616 49.2178 63.0000 1.0000
672 1 45.5450 47.7300 63.0000 1.0000
673 1 46.4645 46.4645 63.0000 1.0000
674 1 47.7300 45.5450 63.0000 1.0000
675 1 49.2178 45.0616 63.0000 1.0000
676 1 50.7822 45.0616 63.0000 1.0000
677 1 52.2700 45.5450 63.0000 1.0000
678 1 53.5355 46.4645 63.0000 1.0000
679 1 54.4550 47.7300 63.0000 1.0000
680 1 54.9384 49.2178 63.0000 1.0000
681 1 55.0000 50.0000 64.0000 1.0000
682 1 54.7553 51.5451 64.0000 1.0000
683 1 54.0451 52.9389 64.0000 1.0000
684 1 52.9389 54.0451 64.0000 1.0000
685 1 51.5451 54.7553 64.0000 1.0000
686 1 50.0000 55.0000 64.0000 1.0000
687 1 48.4549 54.7553 64.0000 1.0000
688 1 47.0611 54.0451 64.0000 1.0000
689 1 45.9549 52.9389 64.0000 1.0000
690 1 45.2447 51.5451 64.0000 1.0000
691 1 45.0000 50.0000 64.0000 1.0000
692 1 45.2447 48.4549 64.0000 1.0000
693 1 45.9549 47.0611 64.0000 1.0000
694 1 47.0611 45.9549 64.0000 1.0000
695 1 48.4549 45.2447 64.0000 1.0000
696 1 50.0000 45.0000 64.0000 1.0000
697 1 51.5451 45.2447 64.0000 1.0000
698 1 52.9389 45.9549 64.0000 1.0000
699 1 54.0451 47.0611 64.0000 1.0000
700 1 54.7553 48.4549 64.0000 1.0000
701 1 54.9384 50.7822 65.0000 1.0000
702 1 54.4550 52.2700 65.0000 1.0000
703 1 53.5355 53.5355 65.0000 1.0000
704 1 52.2700 54.4550 65.0000 1.0000
705 1 50.7822 54.9384 65.0000 1.0000
706 1 49.2178 54.9384 65.0000 1.0000
707 1 47.7300 54.4550 65.0000 1.0000
708 1 46.4645 53.5355 65.0000 1.0000
709 1 45.5450 52.2700 65.0000 1.0000
710 1 45.0616 50.7822 65.0000 1.0000
711 1 45.0616 49.2178 65.0000 1.0000
712 1 45.5450 47.7300 65.0000 1.0000
713 1 46.4645 46.4645 65.0000 1.0000
714 1 47.7300 45.5450 65.0000 1.0000
715 1 49.2178 45.0616 65.0000 1.0000
716 1 50.7822 45.0616 65.0000 1.0000
717 1 52.2700 45.5450 65.0000 1.0000
718 1 53.5355 46.4645 65.0000 1.0000
719 1 54.4550 47.7300 65.0000 1.0000
720 1 54.9384 49.2178 65.0000 1.0000
721 1 55.0000 50.0000 66.0000 1.0000
722 1 54.7553 51.5451 66.0000 1.0000
723 1 54.0451 52.9389 66.0000 1.0000
724 1 52.9389 54.0451 66.0000 1.0000
725 1 51.5451 54.7553 66.0000 1.0000
726 1 50.0000 55.0000 66.0000 1.0000
727 1 48.4549 54.7553 66.0000 1.0000
728 1 47.0611 54.0451 66.0000 1.0000
729 1 45.9549 52.9389 66.0000 1.0000
730 1 45.2447 51.5451 66.0000 1.0000
731 1 45.0000 50.0000 66.0000 1.0000
732 1 45.2447 48.4549 66.0000 1.0000
733 1 45.9549 47.0611 66.0000 1.0000
734 1 47.0611 45.9549 66.0000 1.0000
735 1 48.4549 45.2447 66.0000 1.0000
736 1 50.0000 45.0000 66.0000 1.0000
737 1 51.5451 45.2447 66.0000 1.0000
738 1 52.9389 45.9549 66.0000 1.0000
739 1 54.0451 47.0611 66.0000 1.0000
740 1 54.7553 48.4549 66.0000 1.0000
741 1 54.9384 50.7822 67.0000 1.0000
742 1 54.4550 52.2700 67.0000 1.0000
743 1 53.5355 53.5355 67.0000 1.0000
744 1 52.2700 54.4550 67.0000 1.0000
745 1 50.7822 54.9384 67.0000 1.0000
746 1 49.2178 54.9384 67.0000 1.0000
747 1 47.7300 54.4550 67.0000 1.0000
748 1 46.4645 53.5355 67.0000 1.0000
749 1 45.5450 52.2700 67.0000 1.0000
750 1 45.0616 50.7822 67.0000 1.0000
751 1 45.0616 49.2178 67.0000 1.0000
752 1 45.5450 47.7300 67.0000 1.0000
753 1 46.4645 46.4645 67.0000 1.0000
754 1 47.7300 45.5450 67.0000 1.0000
755 1 49.2178 45.0616 67.0000 1.0000
756 1 50.7822 45.0616 67.0000 1.0000
757 1 52.2700 45.5450 67.0000 1.0000
758 1 53.5355 46.4645 67.0000 1.0000
759 1 54.4550 47.7300 67.0000 1.0000
760 1 54.9384 49.2178 67.0000 1.0000
761 1 55.0000 50.0000 68.0000 1.0000
762 1 54.7553 51.5451 68.0000 1.0000
763 1 54.0451 52.9389 68.0000 1.0000
764 1 52.9389 54.0451 68.0000 1.0000
765 1 51.5451 54.7553 68.0000 1.0000
766 1 50.0000 55.0000 68.0000 1.0000
767 1 48.4549 54.7553 68.0000 1.0000
768 1 47.0611 54.0451 68.0000 1.0000
769 1 45.9549 52.9389 68.0000 1.0000
770 1 45.2447 51.5451 68.0000 1.0000
771 1 45.0000 50.0000 68.0000 1.0000
772 1 45.2447 48.4549 68.0000 1.0000
773 1 45.9549 47.0611 68.0000 1.0000
774 1 47.0611 45.9549 68.0000 1.0000
775 1 48.4549 45.2447 68.0000 1.0000
776 1 50.0000 45.0000 68.0000 1.0000
777 1 51.5451 45.2447 68.0000 1.0000
778 1 52.9389 45.9549 68.0000 1.0000
779 1 54.0451 47.0611 68.0000 1.0000
780 1 54.7553 48.4549 68.0000 1.0000
781 1 54.9384 50.7822 69.0000 1.0000
782 1 54.4550 52.2700 69.0000 1.0000
783 1 53.5355 53.5355 69.0000 1.0000
784 1 52.2700 54.4550 69.0000 1.0000
785 1 50.7822 54.9384 69.0000 1.0000
786 1 49.2178 54.9384 69.0000 1.0000
787 1 47.7300 54.4550 69.0000 1.0000
788 1 46.4645 53.5355 69.0000 1.0000
789 1 45.5450 52.2700 69.0000 1.0000
790 1 45.0616 50.7822 69.0000 1.0000
791 1 45.0616 49.2178 69.0000 1.0000
792 1 45.5450 47.7300 69.0000 1.0000
793 1 46.4645 46.4645 69.0000 1.0000
794 1 47.7300 45.5450 69.0000 1.0000
795 1 49.2178 45.0616 69.0000 1.0000
796 1 50.7822 45.0616 69.0000 1.0000
797 1 52.2700 45.5450 69.0000 1.0000
798 1 53.5355 46.4645 69.0000 1.0000
799 1 54.4550 47.7300 69.0000 1.0000
800 1 54.9384 49.2178 69.0000 1.0000
ITEM: TIMESTEP
1000
ITEM: NUMBER OF ATOMS
800
ITEM: BOX BOUNDS pp pp pp
0.0 100.0
0.0 100.0
0.0 100.0
ITEM: ATOMS id type x y z bondstrength
1 1 55.0004 50.0002 29.8393 1.0000
2 1 54.7549 51.5457 29.8393 1.0000
3 1 54.0452 52.9390 29.8380 1.0000
4 1 52.9388 54.0455 29.8383 1.0000
5 1 51.5447 54.7552 29.8380 1.0000
6 1 50.0007 54.9992 29.8392 1.0000