ITEM: TIMESTEP
0
ITEM: NUMBER OF ATOMS
864
ITEM: BOX BOUNDS pp pp pp
0.0 23.3400
0.0 23.3400
0.0 23.3400
ITEM: ATOMS id type x y z error strain stiffness
1 46 -0.0162 0.0085 -0.0205 2.7622 0.0000 2.5719
2 46 1.9438 1.9318 0.0403 2.7235 0.0000 2.2642
3 46 1.9823 0.0246 1.9561 2.2426 0.0000 2.8665
4 46 0.0200 1.9598 1.9440 2.3766 0.0000 2.3144
5 46 -0.0204 0.0405 3.8910 3.0882 0.0000 2.8985
6 46 1.9389 1.9495 3.8902 2.6719 0.0000 2.7732
7 46 1.9390 -0.0250 5.8453 2.4441 0.0000 2.2994
8 46 -0.0239 1.9123 5.8227 2.7001 0.0000 2.7555
9 46 0.0264 0.0434 7.7765 2.7860 0.0000 3.0371
10 46 1.9370 1.9116 7.7695 2.9783 0.0000 2.9375
11 46 1.9549 -0.0006 9.7239 2.5432 0.0000 2.3523
12 46 -0.0232 1.9182 9.7246 2.1101 0.0000 2.4135
13 46 0.0095 0.0148 11.6472 2.8022 0.0000 2.5337
14 46 1.9354 1.9645 11.6698 3.0136 0.0000 2.6337
15 46 1.9207 0.0041 13.6155 2.9378 0.0000 2.3116
16 46 0.0068 1.9539 13.5935 2.8312 0.0000 2.9611
17 46 0.0046 0.0267 15.5753 2.1917 0.0000 2.4646
18 46 1.9873 1.9371 15.5446 2.4456 0.0000 2.8469
19 46 1.9432 0.0085 17.4783 2.4773 0.0000 2.6410
20 46 -0.0041 1.9549 17.4961 3.1132 0.0000 2.7126
21 46 -0.0047 -0.0130 19.4425 2.7969 0.0000 2.6113
22 46 1.9402 1.9647 19.4350 2.3830 0.0000 2.5550
23 46 1.9412 -0.0102 21.3637 2.8149 0.0000 2.3822
24 46 0.0123 1.9511 21.4126 2.3834 0.0000 2.5157
25 46 0.0094 3.8851 0.0223 2.7176 0.0000 2.3616
26 46 1.9308 5.8295 0.0078 2.1829 0.0000 2.7423
27 46 1.9407 3.8876 1.9670 2.7471 0.0000 2.6904
28 46 0.0133 5.8687 1.9658 2.6604 0.0000 3.0044
29 46 0.0063 3.9339 3.8940 2.7399 0.0000 2.5240
30 46 1.9335 5.8190 3.8951 3.0928 0.0000 3.0496
31 46 1.9945 3.8559 5.8457 2.1492 0.0000 3.0476
32 46 -0.0062 5.7981 5.8385 2.5883 0.0000 2.5319
33 46 0.0079 3.8746 7.7903 2.9090 0.0000 2.5551
34 46 1.9537 5.8215 7.7688 2.1190 0.0000 2.8517
35 46 1.9118 3.8748 9.7606 2.4207 0.0000 2.4984
36 46 -0.0390 5.8245 9.7419 2.5667 0.0000 2.4410
37 46 -0.0066 3.9111 11.6480 2.6901 0.0000 2.4250
38 46 1.9613 5.8187 11.6840 2.7480 0.0000 2.7189
39 46 1.9297 3.8750 13.6158 2.3864 0.0000 2.3258
40 46 -0.0023 5.8228 13.6091 2.3786 0.0000 2.8445
41 46 0.0128 3.8718 15.5463 2.7479 0.0000 2.3887
42 46 1.9069 5.8071 15.5429 2.5940 0.0000 3.0517
43 46 1.9530 3.8730 17.5454 2.4739 0.0000 2.6542
44 46 -0.0035 5.8458 17.5238 2.8361 0.0000 2.9601
45 46 0.0363 3.9005 19.4397 2.8654 0.0000 2.5157
46 46 1.9248 5.8428 19.4496 2.7010 0.0000 2.2838
47 46 1.9324 3.9050 21.3743 2.9056 0.0000 2.7775
48 46 0.0184 5.8324 21.3896 2.2451 0.0000 2.8963
49 46 0.0275 7.8015 0.0107 2.9375 0.0000 3.0582
50 46 1.9544 9.7592 0.0068 2.4363 0.0000 2.4290
51 46 1.9702 7.7671 1.9582 2.2222 0.0000 2.9925
52 46 -0.0256 9.7180 1.9370 2.6028 0.0000 2.2859
53 46 0.0019 7.8016 3.8949 2.4880 0.0000 2.8928
54 46 1.9749 9.7132 3.9050 2.9087 0.0000 2.6958
55 46 1.9643 7.7909 5.8703 2.3266 0.0000 2.4562
56 46 0.0374 9.7665 5.8254 2.5492 0.0000 2.3455
57 46 -0.0477 7.7516 7.7813 2.2619 0.0000 2.6380
58 46 1.9467 9.7238 7.7895 2.0779 0.0000 2.7038
59 46 1.9245 7.7825 9.7298 2.5108 0.0000 2.7992
60 46 -0.0227 9.7355 9.7632 3.1053 0.0000 3.0246
61 46 -0.0280 7.7994 11.6657 3.0849 0.0000 2.8773
62 46 1.9349 9.7656 11.6450 2.9173 0.0000 2.8459
63 46 1.9431 7.7655 13.5915 3.0764 0.0000 2.5204
64 46 0.0179 9.7382 13.6189 2.8993 0.0000 2.9955
65 46 -0.0040 7.7939 15.5540 2.6648 0.0000 3.0148
66 46 1.9243 9.7196 15.5756 3.0444 0.0000 2.9614
67 46 1.9305 7.7921 17.4997 2.4870 0.0000 2.8132
68 46 -0.0048 9.7334 17.5316 2.1507 0.0000 2.5994
69 46 0.0095 7.8177 19.4363 2.2667 0.0000 2.6404
70 46 1.9814 9.7172 19.4163 2.7703 0.0000 2.2727
71 46 1.9631 7.7616 21.3786 3.0095 0.0000 2.6768
72 46 0.0085 9.7038 21.4169 2.8813 0.0000 2.7333
73 46 -0.0126 11.6385 -0.0323 2.2338 0.0000 2.4826
74 46 1.9533 13.6450 0.0213 2.7393 0.0000 2.7374
75 46 1.9819 11.6981 1.9582 3.0299 0.0000 3.0040
76 46 0.0045 13.6066 1.9596 2.1755 0.0000 2.5822
77 46 -0.0106 11.6357 3.8806 3.0301 0.0000 2.4181
78 46 1.9341 13.6308 3.9023 3.0798 0.0000 2.7283
79 46 1.9415 11.6652 5.8244 2.7905 0.0000 2.9738
80 46 0.0084 13.6134 5.8699 3.0199 0.0000 2.8662
81 46 0.0392 11.6497 7.8212 2.7519 0.0000 2.3284
82 46 1.9573 13.6070 7.7748 2.6094 0.0000 2.5886
83 46 1.9591 11.6606 9.7106 2.6922 0.0000 2.5003
84 46 -0.0168 13.6015 9.7497 2.7046 0.0000 2.9912
85 46 0.0100 11.6325 11.6860 3.0153 0.0000 2.5521
86 46 1.9502 13.6217 11.6856 2.4274 0.0000 2.3406
87 46 1.9435 11.6313 13.6428 2.7141 0.0000 2.3627
88 46 -0.0055 13.6297 13.6077 2.2365 0.0000 2.8053
89 46 -0.0118 11.6975 15.5407 2.5467 0.0000 2.5319
90 46 1.9480 13.6113 15.5286 2.6895 0.0000 2.4063
91 46 1.9738 11.6828 17.5141 2.2433 0.0000 2.4606
92 46 0.0209 13.5717 17.5039 2.7985 0.0000 2.3285
93 46 -0.0155 11.6796 19.4494 2.5176 0.0000 2.9661
94 46 1.9271 13.5806 19.4729 2.5282 0.0000 2.7207
95 46 1.9453 11.6503 21.3760 2.5599 0.0000 2.9039
96 46 0.0035 13.6003 21.3992 2.7358 0.0000 2.5290
97 46 -0.0054 15.5806 0.0217 3.0175 0.0000 2.8969
98 46 1.9902 17.5102 -0.0050 2.9024 0.0000 2.6523
99 46 1.9532 15.5829 1.9529 2.1683 0.0000 2.6335
100 46 0.0220 17.5377 1.9002 2.5923 0.0000 2.7753
101 46 0.0077 15.5608 3.8916 2.4398 0.0000 2.3860
102 46 1.9440 17.5018 3.9011 2.2520 0.0000 2.6171
103 46 1.9249 15.5609 5.8245 2.3493 0.0000 2.7780
104 46 0.0148 17.4734 5.8324 2.5738 0.0000 2.5186
105 46 -0.0229 15.5786 7.7872 2.4822 0.0000 2.6377
106 46 1.9602 17.5038 7.7721 2.9183 0.0000 2.8635
107 46 1.9275 15.5910 9.7093 2.5094 0.0000 2.8001
108 46 -0.0282 17.4730 9.7340 2.7441 0.0000 2.3365
109 46 0.0019 15.5653 11.6512 2.3421 0.0000 3.0110
110 46 1.9497 17.4780 11.7024 2.5443 0.0000 2.4180
111 46 1.9242 15.5447 13.6151 2.3525 0.0000 2.9335
112 46 0.0030 17.5460 13.6195 2.0963 0.0000 2.6321
113 46 -0.0105 15.5256 15.5389 2.7206 0.0000 2.7218
114 46 1.9129 17.4716 15.5844 2.4899 0.0000 2.4434
115 46 1.9758 15.5694 17.4854 2.3356 0.0000 2.8902
116 46 -0.0161 17.4862 17.4887 3.0186 0.0000 2.5084
117 46 -0.0265 15.5461 19.4305 2.8040 0.0000 2.8963
118 46 1.9731 17.5022 19.4230 2.7856 0.0000 2.7399
119 46 1.9584 15.5364 21.3963 2.7105 0.0000 2.9260
120 46 0.0181 17.5514 21.3505 2.6832 0.0000 2.5521
121 46 -0.0011 19.4481 0.0262 3.1052 0.0000 2.6818
122 46 1.9846 21.3639 -0.0091 2.6851 0.0000 2.7852
123 46 1.9611 19.4289 1.9543 2.5488 0.0000 2.3534
124 46 -0.0228 21.3865 1.9315 2.2084 0.0000 3.0131
125 46 0.0098 19.4283 3.8855 3.1066 0.0000 2.5749
126 46 1.9737 21.4182 3.9257 2.4082 0.0000 2.5820
127 46 1.9463 19.4710 5.8139 2.7947 0.0000 2.7670
128 46 0.0191 21.4073 5.9136 2.6178 0.0000 2.5424
129 46 -0.0306 19.4838 7.7428 2.6506 0.0000 2.8151
130 46 1.9316 21.3873 7.7622 2.5577 0.0000 2.7725
131 46 1.9492 19.4711 9.7060 2.5371 0.0000 2.2615
132 46 -0.0066 21.4243 9.7310 2.3943 0.0000 2.3263
133 46 -0.0070 19.4508 11.6586 2.8199 0.0000 2.8244
134 46 1.9314 21.3969 11.6906 2.6884 0.0000 2.8889
135 46 1.9471 19.4283 13.5977 2.5169 0.0000 2.2727
136 46 -0.0061 21.4056 13.6215 2.1892 0.0000 3.0251
137 46 -0.0067 19.4185 15.5733 3.1039 0.0000 2.4901
138 46 1.9302 21.3591 15.5658 2.4136 0.0000 2.3984
139 46 1.9680 19.4171 17.5147 2.6425 0.0000 2.6924
140 46 -0.0106 21.3863 17.4662 2.6367 0.0000 2.6351
141 46 -0.0165 19.4375 19.4425 2.2543 0.0000 2.5250
142 46 1.9325 21.4029 19.4591 2.6727 0.0000 2.7464
143 46 1.9352 19.4508 21.3614 2.7198 0.0000 2.9210
144 46 -0.0014 21.4088 21.4112 2.6954 0.0000 2.4170
145 46 3.8729 0.0029 -0.0612 3.0432 0.0000 2.5284
146 46 5.8699 1.9385 0.0032 2.5842 0.0000 2.3499
147 46 5.8034 -0.0216 1.9262 2.5439 0.0000 2.3776
148 46 3.8935 1.9428 1.9561 2.9156 0.0000 2.7663
149 46 3.9239 0.0175 3.9164 2.9208 0.0000 2.6889
150 46 5.8632 1.9635 3.8941 2.4568 0.0000 2.7211
151 46 5.8128 -0.0426 5.7965 2.2523 0.0000 2.9380
152 46 3.9454 1.9464 5.8348 2.0775 0.0000 2.7977
153 46 3.9085 -0.0039 7.7962 2.6371 0.0000 2.8885
154 46 5.8190 1.9385 7.7834 2.7680 0.0000 2.4284
155 46 5.8414 0.0156 9.7243 3.0373 0.0000 2.6897
156 46 3.9134 1.9796 9.7297 2.9644 0.0000 2.4016
157 46 3.9010 -0.0397 11.6669 2.4423 0.0000 2.3855
158 46 5.8483 1.9526 11.6541 2.6376 0.0000 2.6559
159 46 5.8482 0.0379 13.6240 2.4853 0.0000 2.4872
160 46 3.8970 1.9770 13.6288 2.2654 0.0000 2.3830
161 46 3.8896 -0.0297 15.6115 2.4876 0.0000 2.6601
162 46 5.8917 1.9825 15.5603 2.6262 0.0000 2.7398
163 46 5.8413 -0.0211 17.4991 2.9350 0.0000 2.6220
164 46 3.8981 1.9648 17.4939 2.7621 0.0000 2.4445
165 46 3.8897 0.0244 19.4381 3.1121 0.0000 2.8712
166 46 5.8358 1.9240 19.4563 2.9405 0.0000 2.2711
167 46 5.8186 0.0233 21.3836 2.1456 0.0000 2.6951
168 46 3.8711 1.9299 21.3794 2.9135 0.0000 2.9283
169 46 3.8677 3.9260 -0.0118 2.5708 0.0000 2.6071
170 46 5.8383 5.8099 0.0169 2.1627 0.0000 2.9024
171 46 5.8494 3.8857 1.9266 2.8692 0.0000 2.9481
172 46 3.9088 5.8302 1.9751 2.2130 0.0000 2.3452
173 46 3.8850 3.8710 3.8642 2.2700 0.0000 2.7855
174 46 5.8739 5.8514 3.9229 2.0980 0.0000 2.2642
175 46 5.8224 3.8672 5.8152 2.3582 0.0000 2.4232
176 46 3.8876 5.8571 5.8630 2.0776 0.0000 2.8687
177 46 3.8894 3.8832 7.8200 3.0922 0.0000 2.8242
178 46 5.8182 5.8194 7.7588 2.5038 0.0000 2.3791
179 46 5.8629 3.9034 9.7227 2.4033 0.0000 2.6519
180 46 3.8806 5.8133 9.7517 2.3227 0.0000 2.9070
181 46 3.8887 3.8732 11.6607 2.2921 0.0000 2.7972
182 46 5.8489 5.8644 11.6711 3.1138 0.0000 2.6675
183 46 5.8332 3.9159 13.6185 2.4294 0.0000 2.5140
184 46 3.8849 5.8530 13.6625 2.6061 0.0000 2.7377
185 46 3.9041 3.9151 15.5645 2.8023 0.0000 2.8652
186 46 5.8290 5.8303 15.5154 2.5890 0.0000 2.7253
187 46 5.7898 3.8692 17.4578 2.2288 0.0000 2.3243
188 46 3.9119 5.8304 17.4848 2.5190 0.0000 2.6256
189 46 3.8892 3.8761 19.4618 2.4357 0.0000 3.0570
190 46 5.8342 5.8799 19.4962 2.1621 0.0000 2.9097
191 46 5.8564 3.8710 21.4007 2.1986 0.0000 2.3203
192 46 3.8999 5.8560 21.4306 2.2721 0.0000 2.5559
193 46 3.8659 7.7798 0.0448 2.3734 0.0000 2.4461
194 46 5.7741 9.7198 -0.0149 2.3036 0.0000 2.3138
195 46 5.8304 7.7751 1.9239 2.2896 0.0000 2.5915
196 46 3.8784 9.7622 1.9484 2.6636 0.0000 2.7166
197 46 3.8699 7.7888 3.8767 2.4459 0.0000 2.8807
198 46 5.8288 9.7159 3.8875 3.0113 0.0000 2.4718
199 46 5.8431 7.8061 5.8237 2.3154 0.0000 2.8044
200 46 3.8670 9.7386 5.8188 3.0663 0.0000 2.2662
201 46 3.8880 7.8019 7.8107 2.1077 0.0000 2.9329
202 46 5.8604 9.7567 7.7528 2.4928 0.0000 2.7260
203 46 5.8404 7.8022 9.7046 2.3451 0.0000 3.0455
204 46 3.8844 9.7499 9.7420 2.4368 0.0000 2.4570
205 46 3.8844 7.7748 11.6880 2.8597 0.0000 2.3641
206 46 5.8411 9.7200 11.6965 2.7961 0.0000 2.9588
207 46 5.8042 7.8055 13.6165 2.8924 0.0000 2.4499
208 46 3.9032 9.7422 13.5988 2.4853 0.0000 2.8575
209 46 3.8600 7.7737 15.5762 2.2877 0.0000 2.5442
210 46 5.7970 9.7000 15.5296 2.1290 0.0000 2.3462
211 46 5.8069 7.7769 17.5045 2.1605 0.0000 2.2733
212 46 3.8706 9.7408 17.5786 2.4924 0.0000 2.7237
213 46 3.8670 7.8163 19.4267 2.3361 0.0000 2.8040
214 46 5.8172 9.6952 19.4165 2.3556 0.0000 2.2709
215 46 5.8444 7.8044 21.4008 2.7166 0.0000 2.3348
216 46 3.9405 9.7060 21.4211 2.6494 0.0000 2.6228
217 46 3.8706 11.7225 -0.0038 2.8021 0.0000 2.9057
218 46 5.8233 13.6279 0.0140 2.8319 0.0000 2.2843
219 46 5.8444 11.6810 1.9815 2.1639 0.0000 2.7283
220 46 3.8915 13.6002 1.9175 2.9710 0.0000 2.9205
221 46 3.8879 11.6988 3.8509 2.9303 0.0000 2.4729
222 46 5.8602 13.6182 3.8917 3.1140 0.0000 2.8975
223 46 5.8210 11.6167 5.8433 2.8795 0.0000 2.8668
224 46 3.9053 13.6311 5.8398 3.0269 0.0000 2.4948
225 46 3.9002 11.6709 7.7840 2.6486 0.0000 2.9651
226 46 5.8480 13.6054 7.7745 2.9271 0.0000 2.8692
227 46 5.8524 11.6868 9.7553 2.9625 0.0000 2.5732
228 46 3.9369 13.5897 9.7460 2.6483 0.0000 2.5731
229 46 3.8871 11.6693 11.6636 2.2368 0.0000 2.6118
230 46 5.8324 13.6198 11.6889 2.2743 0.0000 2.8440
231 46 5.8136 11.6614 13.6369 2.9535 0.0000 2.5152
232 46 3.8522 13.5988 13.6226 2.6890 0.0000 2.9821
233 46 3.8620 11.6957 15.5194 2.6807 0.0000 2.9193
234 46 5.8487 13.6179 15.5750 2.8882 0.0000 2.4761
235 46 5.8179 11.6430 17.5316 2.8468 0.0000 2.6180
236 46 3.8655 13.6307 17.5414 2.7055 0.0000 3.0530
237 46 3.8877 11.6404 19.4443 2.7768 0.0000 2.7220
238 46 5.8400 13.6288 19.4372 2.6503 0.0000 2.9513
239 46 5.8496 11.7079 21.3978 2.6411 0.0000 2.7512
240 46 3.8808 13.6453 21.3937 2.5182 0.0000 2.5276
241 46 3.8779 15.5585 -0.0087 2.4139 0.0000 2.3279
242 46 5.8437 17.5103 0.0000 2.1882 0.0000 2.6158
243 46 5.8187 15.5635 1.9371 2.3268 0.0000 2.5535
244 46 3.9020 17.5234 1.9399 2.3267 0.0000 2.8525
245 46 3.8658 15.5411 3.8729 2.2908 0.0000 2.3201
246 46 5.8357 17.4840 3.8700 2.5849 0.0000 2.9365
247 46 5.8581 15.5703 5.8226 2.1576 0.0000 2.8002
248 46 3.8960 17.4985 5.8243 2.6450 0.0000 2.3065
249 46 3.8828 15.5618 7.7539 2.3933 0.0000 2.8226
250 46 5.8333 17.4850 7.7681 2.7561 0.0000 2.8458
251 46 5.8743 15.5131 9.7642 2.4242 0.0000 2.4703
252 46 3.8878 17.5089 9.7431 2.0821 0.0000 2.8213
253 46 3.9107 15.5578 11.6641 2.3835 0.0000 2.9442
254 46 5.8514 17.5309 11.6683 2.8455 0.0000 2.6899
255 46 5.8550 15.5680 13.5883 2.2703 0.0000 2.7579
256 46 3.9031 17.5109 13.6260 2.7219 0.0000 2.4269
257 46 3.8709 15.5723 15.5616 2.4485 0.0000 2.3105
258 46 5.8420 17.5099 15.5628 2.2361 0.0000 2.4851
259 46 5.7855 15.6071 17.5340 2.7114 0.0000 2.4828
260 46 3.9014 17.5000 17.5451 2.3368 0.0000 2.6707
261 46 3.8860 15.5469 19.4684 2.2726 0.0000 2.4204
262 46 5.8371 17.5166 19.4590 2.3714 0.0000 3.0009
263 46 5.8457 15.5638 21.4158 3.0290 0.0000 3.0100
264 46 3.8883 17.4963 21.4096 2.9510 0.0000 2.6674
265 46 3.8992 19.4292 -0.0058 2.3853 0.0000 2.3544
266 46 5.8143 21.4263 0.0154 2.0930 0.0000 2.9393
267 46 5.8367 19.4317 1.9342 2.5249 0.0000 2.6186
268 46 3.9002 21.4086 1.9764 2.8266 0.0000 2.2672
269 46 3.8425 19.4638 3.9247 2.4128 0.0000 2.4266
270 46 5.8109 21.4275 3.8693 2.2599 0.0000 2.6061
271 46 5.8774 19.4299 5.8266 2.1084 0.0000 2.6244
272 46 3.8662 21.4070 5.8422 2.8630 0.0000 2.7517
273 46 3.9148 19.4589 7.8244 2.4214 0.0000 2.4230
274 46 5.8527 21.4066 7.7720 3.0680 0.0000 2.8089
275 46 5.8157 19.4536 9.7270 2.7113 0.0000 2.3290
276 46 3.9033 21.3876 9.7217 2.5871 0.0000 2.8529
277 46 3.8672 19.4438 11.7028 2.6394 0.0000 2.4617
278 46 5.8101 21.3916 11.6377 3.0663 0.0000 2.7745
279 46 5.8365 19.4561 13.6211 2.4281 0.0000 2.4369
280 46 3.9148 21.3963 13.6158 2.4746 0.0000 3.0054
281 46 3.8980 19.3951 15.5570 2.1681 0.0000 2.9816
282 46 5.8134 21.3654 15.5604 2.5682 0.0000 2.4412
283 46 5.8680 19.4339 17.4814 2.2007 0.0000 2.3129
284 46 3.8769 21.3928 17.5200 2.5144 0.0000 2.8231
285 46 3.8694 19.4106 19.4229 2.7970 0.0000 2.9886
286 46 5.8107 21.3873 19.4708 2.8503 0.0000 3.0476
287 46 5.8319 19.4464 21.4146 2.6838 0.0000 3.0276
288 46 3.8941 21.3681 21.4016 2.4269 0.0000 2.2733
289 46 7.7865 -0.0366 -0.0247 2.0837 0.0000 2.4380
290 46 9.7169 1.9716 -0.0284 3.0020 0.0000 2.8379
291 46 9.7480 0.0239 1.9585 2.3684 0.0000 2.6779
292 46 7.7723 1.9403 1.9439 3.1057 0.0000 2.7099
293 46 7.7742 0.0031 3.8762 2.0847 0.0000 2.7866
294 46 9.7469 1.9505 3.9205 2.2605 0.0000 2.4375
295 46 9.7174 0.0288 5.8081 2.6992 0.0000 2.7043
296 46 7.7469 1.9503 5.7849 2.0906 0.0000 2.5380
297 46 7.7922 -0.0177 7.7907 2.8400 0.0000 2.2997
298 46 9.7432 1.9242 7.7913 2.3640 0.0000 2.8882
299 46 9.7500 -0.0228 9.6885 2.2528 0.0000 2.5139
300 46 7.8044 1.9414 9.6793 2.6005 0.0000 3.0190
301 46 7.7640 -0.0063 11.6927 3.0479 0.0000 2.7919
302 46 9.7642 1.9851 11.6939 2.8629 0.0000 2.8042
303 46 9.7119 -0.0100 13.6335 2.5402 0.0000 3.0074
304 46 7.7786 1.9206 13.6051 3.0679 0.0000 2.7764
305 46 7.7401 -0.0122 15.5195 2.6509 0.0000 2.9516
306 46 9.7446 1.9512 15.5622 2.9649 0.0000 2.9835
307 46 9.7774 -0.0297 17.4918 2.2634 0.0000 2.9815
308 46 7.7730 1.9523 17.4861 2.8878 0.0000 2.7319
309 46 7.7712 0.0234 19.4262 2.6930 0.0000 2.7381
310 46 9.6725 1.9652 19.4502 2.8862 0.0000 2.2630
311 46 9.7692 -0.0358 21.3864 2.4269 0.0000 2.8621
312 46 7.7745 1.9698 21.3827 2.1898 0.0000 2.3953
313 46 7.7682 3.9078 0.0215 2.2998 0.0000 2.3585
314 46 9.7345 5.8179 0.0125 2.2407 0.0000 2.4794
315 46 9.7009 3.8999 1.9136 2.3689 0.0000 2.8311
316 46 7.7513 5.8744 1.9386 2.6749 0.0000 2.8870
317 46 7.7797 3.8732 3.8833 2.7518 0.0000 2.8521
318 46 9.7332 5.8388 3.8713 2.4577 0.0000 2.7780
319 46 9.6953 3.8867 5.8293 2.1699 0.0000 2.8141
320 46 7.7896 5.8210 5.8160 2.8517 0.0000 3.0228
321 46 7.7774 3.9270 7.7645 2.1169 0.0000 2.7176
322 46 9.7328 5.8575 7.7627 2.9956 0.0000 2.5076
323 46 9.7024 3.8947 9.7381 2.9083 0.0000 2.7496
324 46 7.7824 5.8508 9.7273 2.8837 0.0000 2.6376
325 46 7.7804 3.8769 11.6761 2.3574 0.0000 2.7244
326 46 9.7286 5.8506 11.6669 2.0995 0.0000 2.6143
327 46 9.6996 3.8916 13.6022 2.8589 0.0000 2.4671
328 46 7.7879 5.8011 13.6505 2.6371 0.0000 2.2721
329 46 7.8043 3.8929 15.5564 2.4602 0.0000 2.8831
330 46 9.7732 5.8364 15.5812 2.8058 0.0000 2.8399
331 46 9.7189 3.8678 17.5136 2.6146 0.0000 2.3891
332 46 7.7653 5.8306 17.5132 2.7261 0.0000 2.3338
333 46 7.7766 3.9029 19.4560 2.8841 0.0000 3.0491
334 46 9.7664 5.7996 19.4438 2.4208 0.0000 3.0551
335 46 9.6974 3.8798 21.3993 2.9895 0.0000 2.6706
336 46 7.7580 5.8421 21.3928 2.6519 0.0000 2.5417
337 46 7.7945 7.7640 -0.0108 2.5616 0.0000 2.8488
338 46 9.7222 9.7261 -0.0068 2.1399 0.0000 2.6553
339 46 9.7229 7.7714 1.9448 2.0874 0.0000 2.3986
340 46 7.7339 9.7237 1.9656 2.8225 0.0000 2.9272
341 46 7.7468 7.7919 3.8678 2.2915 0.0000 2.4814
342 46 9.7295 9.7189 3.8829 2.5564 0.0000 2.7520
343 46 9.7099 7.7577 5.8480 2.6087 0.0000 3.0361
344 46 7.7937 9.7307 5.8390 3.0432 0.0000 2.6931
345 46 7.7943 7.8207 7.7695 2.6811 0.0000 2.9753
346 46 9.7194 9.7447 7.7785 2.8105 0.0000 2.5287
347 46 9.7111 7.7690 9.6949 3.0276 0.0000 2.3868
348 46 7.7831 9.6957 9.7032 2.2669 0.0000 2.7489
349 46 7.7982 7.7706 11.6476 2.6166 0.0000 2.2917
350 46 9.7189 9.7193 11.6669 2.8036 0.0000 2.7642
351 46 9.7176 7.8018 13.6362 2.7321 0.0000 2.5400
352 46 7.7533 9.7246 13.6679 2.3765 0.0000 2.5440
353 46 7.7795 7.7721 15.5583 2.2764 0.0000 2.8653
354 46 9.7611 9.7149 15.5618 2.4211 0.0000 2.8699
355 46 9.7276 7.7842 17.5152 3.0025 0.0000 2.5572
356 46 7.7770 9.7635 17.5012 2.1705 0.0000 2.6319
357 46 7.7987 7.7747 19.4892 2.4034 0.0000 2.5590
358 46 9.7372 9.7097 19.4452 2.4083 0.0000 2.6841
359 46 9.7421 7.7733 21.3929 2.6507 0.0000 2.5453
360 46 7.7659 9.7419 21.3756 2.1469 0.0000 2.7998
361 46 7.7096 11.6545 0.0234 2.4297 0.0000 2.8990
362 46 9.6874 13.6035 -0.0214 2.7885 0.0000 2.3078
363 46 9.7270 11.6506 1.9164 2.2318 0.0000 2.3010
364 46 7.8017 13.6568 1.9045 2.9483 0.0000 2.8216
365 46 7.7632 11.6733 3.8671 2.5089 0.0000 2.7678
366 46 9.7179 13.6089 3.8980 2.7268 0.0000 2.5088
367 46 9.7729 11.6408 5.8576 2.4129 0.0000 2.5367
368 46 7.7837 13.6070 5.8348 2.3439 0.0000 2.8071
369 46 7.7991 11.6180 7.7793 3.0891 0.0000 2.8625
370 46 9.7276 13.5932 7.8131 2.2329 0.0000 2.5382
371 46 9.7199 11.6768 9.7393 2.1202 0.0000 2.9403
372 46 7.7849 13.6017 9.7261 2.9307 0.0000 2.8012
373 46 7.8229 11.6678 11.6449 2.2096 0.0000 2.6620
374 46 9.7235 13.5867 11.6811 2.1631 0.0000 2.4623
375 46 9.7207 11.6702 13.6398 2.1592 0.0000 3.0264
376 46 7.7687 13.6254 13.6119 2.5815 0.0000 2.5915
377 46 7.7620 11.6887 15.5560 2.6370 0.0000 2.9460
378 46 9.7127 13.6416 15.5410 2.4253 0.0000 2.3902
379 46 9.7484 11.6700 17.5123 2.4512 0.0000 2.2842
380 46 7.7964 13.6109 17.5060 2.7553 0.0000 2.8285
381 46 7.7676 11.6683 19.4309 2.4364 0.0000 2.4601
382 46 9.7390 13.6184 19.4732 2.3816 0.0000 2.5520
383 46 9.7168 11.7017 21.4057 2.4418 0.0000 2.4880
384 46 7.7856 13.5873 21.4191 2.4429 0.0000 2.3465
385 46 7.7817 15.5479 0.0031 3.1092 0.0000 3.0383
386 46 9.7307 17.5275 -0.0038 2.3204 0.0000 2.8765
387 46 9.6858 15.5680 1.9529 3.0431 0.0000 2.8949
388 46 7.7935 17.5622 1.9322 3.0098 0.0000 2.5255
389 46 7.7788 15.5517 3.8924 2.8080 0.0000 3.0279
390 46 9.7305 17.4801 3.8608 2.8409 0.0000 2.4046
391 46 9.7474 15.5548 5.8013 2.8375 0.0000 2.3387
392 46 7.7795 17.4996 5.8403 2.5927 0.0000 2.5466
393 46 7.7934 15.5587 7.7852 2.2896 0.0000 2.6466
394 46 9.7187 17.5105 7.7833 2.4021 0.0000 3.0273
395 46 9.7324 15.5668 9.7236 2.9308 0.0000 2.9207
396 46 7.8014 17.4909 9.7223 2.8589 0.0000 2.6608
397 46 7.7752 15.5686 11.6703 2.0983 0.0000 2.3037
398 46 9.7087 17.5285 11.6843 3.0769 0.0000 2.8137
399 46 9.7245 15.5960 13.6313 2.3469 0.0000 2.7474
400 46 7.7645 17.5223 13.6313 2.3576 0.0000 3.0397
401 46 7.7665 15.5539 15.5752 2.4938 0.0000 2.4239
402 46 9.7360 17.4929 15.5654 2.8018 0.0000 2.9080
403 46 9.7014 15.5355 17.5023 2.4944 0.0000 2.4807
404 46 7.7873 17.5095 17.4857 2.6520 0.0000 2.4558
405 46 7.7426 15.5743 19.4423 2.3225 0.0000 2.4916
406 46 9.7152 17.5193 19.4162 2.3366 0.0000 2.3749
407 46 9.7315 15.5693 21.3931 2.8458 0.0000 3.0260
408 46 7.7708 17.5429 21.3760 2.5104 0.0000 2.4163
409 46 7.7715 19.4559 0.0079 2.6291 0.0000 2.7154
410 46 9.7099 21.4238 -0.0001 2.4264 0.0000 2.7018
411 46 9.7256 19.4645 1.9656 2.7289 0.0000 2.7253
412 46 7.7673 21.4061 1.9630 2.1687 0.0000 2.6571
413 46 7.7746 19.4739 3.8784 2.3906 0.0000 2.7411
414 46 9.7194 21.4139 3.8714 2.2787 0.0000 2.4309
415 46 9.7308 19.4506 5.8211 2.7407 0.0000 2.4281
416 46 7.7835 21.3648 5.8254 3.0055 0.0000 2.5144
417 46 7.8087 19.4710 7.7867 2.1516 0.0000 3.0211
418 46 9.7222 21.3982 7.7719 2.4202 0.0000 2.4190
419 46 9.7010 19.4550 9.6919 2.7450 0.0000 2.3528
420 46 7.7847 21.3920 9.6983 2.3550 0.0000 3.0406
421 46 7.7929 19.4803 11.6941 2.8240 0.0000 2.2815
422 46 9.7061 21.3737 11.6841 2.9542 0.0000 2.9989
423 46 9.7119 19.4272 13.6139 2.6755 0.0000 2.3687
424 46 7.7649 21.3890 13.6440 3.0477 0.0000 2.5987
425 46 7.7799 19.4614 15.5549 2.6315 0.0000 2.3323
426 46 9.7004 21.3813 15.5750 2.1035 0.0000 2.6693
427 46 9.7253 19.4457 17.5047 2.4073 0.0000 2.5213
428 46 7.7434 21.4257 17.5160 2.5491 0.0000 2.9960
429 46 7.7908 19.4495 19.4311 2.2392 0.0000 2.6266
430 46 9.6954 21.3797 19.4261 2.6977 0.0000 2.6821
431 46 9.6841 19.4452 21.4121 2.5659 0.0000 3.0381
432 46 7.7869 21.4254 21.4039 2.8344 0.0000 2.2954
433 46 11.6738 -0.0023 0.0103 3.0739 0.0000 2.5152
434 46 13.5957 1.9171 0.0069 2.9798 0.0000 2.8867
435 46 13.6023 0.0142 1.9385 2.6908 0.0000 2.7390
436 46 11.6607 1.8984 1.9372 3.0441 0.0000 2.7487
437 46 11.6662 0.0222 3.9102 2.5292 0.0000 2.9968
438 46 13.6041 1.9426 3.8626 2.1459 0.0000 2.3796
439 46 13.5720 0.0064 5.8376 2.6497 0.0000 2.5886
440 46 11.6687 1.9242 5.8628 2.9640 0.0000 2.9725
441 46 11.6661 0.0184 7.7832 3.0590 0.0000 2.6462
442 46 13.6007 1.9757 7.7778 2.6907 0.0000 2.3623
443 46 13.6322 0.0062 9.7279 2.4761 0.0000 2.9175
444 46 11.6639 1.9485 9.7036 2.6745 0.0000 2.6823
445 46 11.6443 -0.0187 11.6601 2.3247 0.0000 2.9723
446 46 13.5943 1.9522 11.6807 3.0626 0.0000 2.6205
447 46 13.5804 -0.0073 13.5968 3.0027 0.0000 2.7072
448 46 11.6568 1.9412 13.6250 2.4881 0.0000 2.5577
449 46 11.6862 0.0268 15.5516 2.7252 0.0000 2.7405
450 46 13.6057 1.9570 15.5536 2.6385 0.0000 2.5079
451 46 13.6111 0.0058 17.4994 2.0860 0.0000 2.8523
452 46 11.6846 1.9415 17.5226 2.4968 0.0000 2.7557
453 46 11.6740 0.0187 19.4237 2.9536 0.0000 2.7303
454 46 13.6146 1.9314 19.4466 2.2452 0.0000 3.0053
455 46 13.6325 0.0077 21.3798 2.9153 0.0000 2.4298
456 46 11.6645 1.9788 21.4048 2.9940 0.0000 2.9040
457 46 11.6802 3.9080 -0.0266 2.1048 0.0000 2.7319
458 46 13.6109 5.8716 -0.0092 2.0857 0.0000 2.8541
459 46 13.6563 3.8639 1.9668 2.8198 0.0000 2.6817
460 46 11.6650 5.8353 1.9649 2.8224 0.0000 2.5990
461 46 11.6722 3.9194 3.9043 3.0130 0.0000 2.4422
462 46 13.6200 5.8055 3.8749 2.6472 0.0000 2.9990
463 46 13.6400 3.8884 5.8119 2.3680 0.0000 2.6318
464 46 11.6644 5.8229 5.8417 2.3685 0.0000 2.7446
465 46 11.6837 3.8754 7.8127 2.6738 0.0000 2.8571
466 46 13.6389 5.8586 7.7690 2.7183 0.0000 2.7000
467 46 13.6050 3.8820 9.7275 2.2142 0.0000 2.7059
468 46 11.6819 5.8334 9.7531 2.7900 0.0000 2.8975
469 46 11.6822 3.9072 11.7007 2.0814 0.0000 2.3474
470 46 13.6079 5.8148 11.7059 2.6564 0.0000 2.5362
471 46 13.6265 3.8950 13.6328 2.5374 0.0000 2.3436
472 46 11.6854 5.8251 13.5933 3.0029 0.0000 2.8391
473 46 11.6684 3.8954 15.5612 3.0397 0.0000 2.5826
474 46 13.6214 5.8245 15.5775 2.9909 0.0000 3.0468
475 46 13.6889 3.8958 17.5265 2.6063 0.0000 2.7865
476 46 11.6863 5.8618 17.5186 2.4185 0.0000 2.9128
477 46 11.6843 3.9061 19.4362 2.1877 0.0000 2.4818
478 46 13.6136 5.8546 19.4640 2.7204 0.0000 2.3349
479 46 13.5907 3.9116 21.4063 2.2679 0.0000 2.9604
480 46 11.6800 5.8017 21.3872 2.3684 0.0000 2.3156
481 46 11.6706 7.7905 -0.0453 2.8462 0.0000 2.4774
482 46 13.6315 9.7670 0.0004 2.0874 0.0000 3.0326
483 46 13.6184 7.7825 1.9282 2.1806 0.0000 2.5744
484 46 11.6685 9.7382 1.9580 2.5086 0.0000 2.4349
485 46 11.6698 7.7893 3.8740 2.5846 0.0000 2.5551
486 46 13.6015 9.7196 3.8718 2.1834 0.0000 2.7555
487 46 13.6319 7.7918 5.8435 2.8196 0.0000 2.3403
488 46 11.6753 9.7157 5.8288 3.0946 0.0000 2.6751
489 46 11.6550 7.7913 7.7912 2.1961 0.0000 2.3022
490 46 13.6384 9.7356 7.7700 2.9010 0.0000 2.3579
491 46 13.6434 7.7941 9.7352 2.2504 0.0000 2.2710
492 46 11.6488 9.7367 9.7115 2.5051 0.0000 2.9498
493 46 11.6727 7.7755 11.6597 2.2404 0.0000 2.3900
494 46 13.6277 9.7317 11.6643 3.0496 0.0000 3.0525
495 46 13.6213 7.7779 13.6149 2.5546 0.0000 2.5452
496 46 11.6719 9.7163 13.6234 2.7952 0.0000 2.4532
497 46 11.7035 7.7843 15.5644 2.4447 0.0000 2.6989
498 46 13.6089 9.7087 15.5632 3.0658 0.0000 2.6527
499 46 13.6250 7.7999 17.4929 2.2822 0.0000 2.9982
500 46 11.6693 9.7626 17.4847 2.2399 0.0000 2.3401
501 46 11.6660 7.7966 19.4361 2.4602 0.0000 2.3381
502 46 13.6100 9.7479 19.4919 2.4051 0.0000 2.4034
503 46 13.6260 7.7892 21.4336 2.2179 0.0000 2.4260
504 46 11.6652 9.7298 21.4205 2.6408 0.0000 2.7794
505 46 11.6769 11.6966 0.0418 2.2044 0.0000 2.4918
506 46 13.6207 13.6556 0.0105 2.7810 0.0000 2.4938
507 46 13.6591 11.6612 1.9690 2.3250 0.0000 2.9489
508 46 11.7065 13.5893 1.9335 2.6889 0.0000 2.5776
509 46 11.6337 11.6355 3.8599 2.8030 0.0000 2.7329
510 46 13.6485 13.6308 3.9127 2.5141 0.0000 2.7002
511 46 13.6208 11.6229 5.8325 2.6868 0.0000 2.9764
512 46 11.6919 13.6207 5.8317 2.7775 0.0000 2.4042
513 46 11.6956 11.6476 7.8124 2.4489 0.0000 2.6896
514 46 13.6159 13.6048 7.7805 2.4888 0.0000 2.3392
515 46 13.6078 11.6909 9.7244 2.5075 0.0000 2.6896
516 46 11.6866 13.6193 9.7354 2.3459 0.0000 2.9164
517 46 11.7152 11.6478 11.6548 2.2782 0.0000 2.4633
518 46 13.6150 13.6579 11.6975 2.8562 0.0000 2.7172
519 46 13.6402 11.6636 13.6109 2.1712 0.0000 2.6050
520 46 11.6555 13.6141 13.6334 3.0524 0.0000 3.0456
521 46 11.6765 11.6322 15.5341 2.4566 0.0000 2.9715
522 46 13.6365 13.5984 15.5538 3.1024 0.0000 2.4070
523 46 13.6561 11.6429 17.5096 2.1672 0.0000 2.8279
524 46 11.6533 13.5921 17.5191 2.4781 0.0000 2.7078
525 46 11.7029 11.6518 19.4735 2.2103 0.0000 2.9913
526 46 13.6002 13.6167 19.4248 2.4984 0.0000 2.6995
527 46 13.6218 11.6521 21.4159 2.9489 0.0000 2.7891
528 46 11.6708 13.5851 21.4149 2.4746 0.0000 2.4976
529 46 11.6379 15.5557 0.0117 2.4012 0.0000 2.7730
530 46 13.5702 17.5111 -0.0358 2.9534 0.0000 2.4845
531 46 13.6256 15.5525 1.9246 2.6404 0.0000 2.4442
532 46 11.6526 17.5022 1.9510 2.1400 0.0000 2.7221
533 46 11.6631 15.5737 3.8660 2.2033 0.0000 3.0202
534 46 13.6096 17.5320 3.8734 2.3479 0.0000 2.8047
535 46 13.6009 15.5573 5.8398 2.1144 0.0000 2.4540
536 46 11.6453 17.4936 5.8493 2.5231 0.0000 2.3223
537 46 11.6621 15.5694 7.7231 2.4475 0.0000 2.3562
538 46 13.6381 17.5293 7.7748 2.8932 0.0000 2.3252
539 46 13.6412 15.5772 9.7251 2.1373 0.0000 2.4797
540 46 11.6440 17.5092 9.7331 2.7646 0.0000 2.9119
541 46 11.7077 15.5552 11.6629 2.4753 0.0000 2.8189
542 46 13.6100 17.4916 11.6602 2.5653 0.0000 2.4370
543 46 13.6166 15.5958 13.5957 2.1470 0.0000 2.9408
544 46 11.6526 17.5056 13.5951 2.2093 0.0000 3.0109
545 46 11.6577 15.5071 15.5538 2.2528 0.0000 2.8511
546 46 13.6083 17.4831 15.5566 3.0509 0.0000 2.5906
547 46 13.6495 15.5719 17.5395 2.8199 0.0000 2.6677
548 46 11.6800 17.5159 17.5213 2.9251 0.0000 3.0554
549 46 11.6454 15.5401 19.4170 2.9475 0.0000 2.9648
550 46 13.5928 17.5257 19.4099 2.2343 0.0000 2.9302
551 46 13.6302 15.5225 21.3650 2.4611 0.0000 2.5713
552 46 11.6752 17.5384 21.3573 3.0271 0.0000 2.4383
553 46 11.6497 19.5117 0.0253 2.8525 0.0000 2.4945
554 46 13.6001 21.3899 0.0032 2.3771 0.0000 2.9928
555 46 13.5976 19.4867 1.9251 2.9167 0.0000 3.0548
556 46 11.6925 21.3643 1.9645 2.4595 0.0000 2.9669
557 46 11.6414 19.4641 3.8689 3.0433 0.0000 2.4644
558 46 13.6161 21.3661 3.8824 2.3824 0.0000 2.7754
559 46 13.5912 19.4229 5.8434 2.0899 0.0000 2.9203
560 46 11.6685 21.4091 5.8412 2.7655 0.0000 2.9206
561 46 11.6823 19.4338 7.7565 2.6032 0.0000 2.3664
562 46 13.6165 21.4154 7.8035 2.8649 0.0000 2.7006
563 46 13.6273 19.4648 9.7422 2.8906 0.0000 2.3587
564 46 11.6783 21.3713 9.7772 2.3299 0.0000 2.6932
565 46 11.6779 19.4123 11.6396 2.1485 0.0000 2.8220
566 46 13.6279 21.4066 11.6567 2.3024 0.0000 2.7089
567 46 13.6106 19.4422 13.6013 2.7137 0.0000 2.6709
568 46 11.6594 21.3862 13.6141 2.1005 0.0000 2.4128
569 46 11.6513 19.4283 15.5295 2.1259 0.0000 2.7005
570 46 13.6203 21.4000 15.5552 2.8060 0.0000 2.9406
571 46 13.6205 19.4950 17.4961 2.2317 0.0000 2.2787
572 46 11.6850 21.3734 17.4842 2.1023 0.0000 2.9338
573 46 11.6725 19.4111 19.4678 3.0444 0.0000 3.0239
574 46 13.6090 21.3896 19.4240 2.4095 0.0000 2.9887
575 46 13.6125 19.4525 21.3944 2.8564 0.0000 2.5106
576 46 11.6524 21.3961 21.3591 2.4621 0.0000 2.6003
577 46 15.5570 0.0018 0.0079 2.6913 0.0000 2.7076
578 46 17.5211 1.9283 0.0133 2.9434 0.0000 2.7036
579 46 17.4844 0.0137 1.9250 2.4069 0.0000 2.5328
580 46 15.5350 1.9485 1.9444 2.9022 0.0000 2.5441
581 46 15.5491 -0.0222 3.8761 2.4935 0.0000 2.9933
582 46 17.4769 1.9524 3.8737 2.6510 0.0000 2.4489
583 46 17.5010 0.0042 5.8236 2.7568 0.0000 2.2648
584 46 15.5476 1.9451 5.8328 2.5046 0.0000 2.6839
585 46 15.5709 0.0088 7.8025 2.4870 0.0000 2.4918
586 46 17.4915 1.9761 7.8114 3.0679 0.0000 2.6684
587 46 17.4921 -0.0236 9.7385 2.6614 0.0000 2.4829
588 46 15.5635 1.9075 9.7295 2.6655 0.0000 2.3760
589 46 15.5565 -0.0097 11.6681 2.8808 0.0000 2.2691
590 46 17.4952 1.9471 11.6516 2.1244 0.0000 2.5334
591 46 17.5585 -0.0097 13.6141 2.4539 0.0000 2.3226
592 46 15.5574 1.9351 13.6108 2.2619 0.0000 2.4154
593 46 15.5519 -0.0038 15.4999 2.3173 0.0000 2.6532
594 46 17.5012 1.9589 15.5500 3.0680 0.0000 3.0065