ITEM: TIMESTEP
0
ITEM: NUMBER OF ATOMS
864
ITEM: BOX BOUNDS pp pp pp
0.0 21.6900
0.0 21.6900
0.0 21.6900
ITEM: ATOMS id type x y z error strain stiffness
1 29 -0.0052 -0.0035 0.0021 1.0970 0.0000 0.9402
2 29 1.8077 1.8002 -0.0053 1.1440 0.0000 0.9295
3 29 1.8183 0.0066 1.8103 1.1034 0.0000 0.7569
4 29 0.0037 1.8057 1.8144 0.8541 0.0000 0.9517
5 29 0.0139 0.0025 3.6150 0.9149 0.0000 0.8569
6 29 1.8162 1.7959 3.6046 0.8000 0.0000 0.7861
7 29 1.7996 0.0094 5.4226 1.0701 0.0000 0.9147
8 29 0.0027 1.7989 5.4259 1.1348 0.0000 0.8982
9 29 -0.0015 0.0102 7.2327 1.0397 0.0000 0.9677
10 29 1.7915 1.8096 7.2385 0.8730 0.0000 0.7679
11 29 1.7991 -0.0046 9.0340 0.8877 0.0000 0.8656
12 29 0.0099 1.8125 9.0337 0.9162 0.0000 0.8043
13 29 -0.0065 -0.0031 10.8408 0.8389 0.0000 0.7733
14 29 1.8079 1.8154 10.8460 0.8513 0.0000 0.8893
15 29 1.8072 0.0097 12.6514 1.1073 0.0000 0.9709
16 29 -0.0062 1.8079 12.6467 0.7988 0.0000 0.8653
17 29 0.0004 0.0011 14.4532 0.8328 0.0000 0.7507
18 29 1.8089 1.8047 14.4639 0.8006 0.0000 0.9407
19 29 1.7990 -0.0036 16.2797 1.1083 0.0000 0.8812
20 29 -0.0029 1.7946 16.2655 1.0164 0.0000 0.9495
21 29 -0.0027 0.0024 18.0861 0.9102 0.0000 0.9065
22 29 1.8132 1.8107 18.0808 1.0570 0.0000 0.8540
23 29 1.8012 0.0043 19.8756 0.9231 0.0000 0.8508
24 29 0.0008 1.8051 19.8841 0.9100 0.0000 0.7400
25 29 -0.0007 3.6275 -0.0052 0.8690 0.0000 0.7413
26 29 1.8036 5.4177 -0.0067 1.0227 0.0000 0.7662
27 29 1.8028 3.6172 1.8050 0.8109 0.0000 0.8464
28 29 0.0022 5.4291 1.8101 0.9104 0.0000 0.7870
29 29 -0.0087 3.6103 3.6240 1.1036 0.0000 0.9288
30 29 1.8114 5.4232 3.6170 0.9505 0.0000 0.7451
31 29 1.8135 3.6095 5.4231 0.8340 0.0000 0.7386
32 29 0.0063 5.4118 5.4212 1.0145 0.0000 0.8127
33 29 -0.0074 3.6162 7.2310 1.0300 0.0000 0.9190
34 29 1.8048 5.4264 7.2169 0.8341 0.0000 0.9143
35 29 1.8149 3.6167 9.0386 0.9057 0.0000 0.9066
36 29 0.0061 5.4183 9.0376 0.8338 0.0000 0.9643
37 29 0.0018 3.6126 10.8315 0.9441 0.0000 0.9088
38 29 1.7956 5.4062 10.8387 0.9874 0.0000 0.9761
39 29 1.8083 3.6124 12.6644 1.0743 0.0000 0.9872
40 29 -0.0078 5.4257 12.6622 0.9460 0.0000 0.7399
41 29 -0.0062 3.6118 14.4552 0.7826 0.0000 0.8586
42 29 1.8117 5.4176 14.4539 0.9097 0.0000 0.7558
43 29 1.8099 3.6123 16.2680 1.0426 0.0000 0.9226
44 29 -0.0114 5.4231 16.2613 0.8581 0.0000 0.9225
45 29 -0.0020 3.6028 18.0765 0.8378 0.0000 0.8995
46 29 1.7985 5.4130 18.0689 0.8943 0.0000 0.8998
47 29 1.7931 3.6040 19.8922 0.8045 0.0000 0.8487
48 29 0.0054 5.4156 19.8728 1.1286 0.0000 0.8775
49 29 0.0080 7.2300 0.0022 0.8526 0.0000 0.8034
50 29 1.8074 9.0400 0.0160 1.0298 0.0000 0.8157
51 29 1.8108 7.2141 1.8061 0.8176 0.0000 0.9748
52 29 0.0129 9.0325 1.8094 0.9271 0.0000 0.9284
53 29 -0.0023 7.2254 3.6116 0.8791 0.0000 0.7719
54 29 1.8108 9.0389 3.6101 1.0237 0.0000 0.8778
55 29 1.8110 7.2179 5.4250 1.0095 0.0000 0.9964
56 29 0.0176 9.0377 5.4225 0.9370 0.0000 0.9360
57 29 -0.0113 7.2330 7.2413 0.9393 0.0000 0.7408
58 29 1.8071 9.0384 7.2301 0.8207 0.0000 0.9203
59 29 1.8025 7.2290 9.0313 1.0950 0.0000 0.9703
60 29 0.0026 9.0474 9.0424 0.8772 0.0000 0.7509
61 29 -0.0076 7.2127 10.8568 0.7870 0.0000 0.8841
62 29 1.7949 9.0295 10.8353 1.0810 0.0000 0.8609
63 29 1.8001 7.2148 12.6503 1.1352 0.0000 0.7422
64 29 -0.0086 9.0403 12.6484 1.0962 0.0000 0.9321
65 29 -0.0064 7.2245 14.4623 1.0607 0.0000 0.7440
66 29 1.8021 9.0386 14.4610 1.0532 0.0000 0.8937
67 29 1.8079 7.2361 16.2754 0.8837 0.0000 0.9886
68 29 -0.0043 9.0433 16.2693 0.8248 0.0000 0.9198
69 29 -0.0015 7.2265 18.0693 0.8592 0.0000 0.9915
70 29 1.8108 9.0396 18.0738 1.0294 0.0000 0.9025
71 29 1.8099 7.2302 19.8859 1.1232 0.0000 0.9356
72 29 -0.0010 9.0328 19.8817 1.1435 0.0000 0.8846
73 29 0.0058 10.8456 -0.0057 0.7986 0.0000 0.9237
74 29 1.8116 12.6525 -0.0167 0.8849 0.0000 0.9527
75 29 1.8069 10.8369 1.7887 1.0912 0.0000 0.8082
76 29 -0.0014 12.6522 1.8143 0.9120 0.0000 0.9509
77 29 -0.0100 10.8406 3.6139 0.9811 0.0000 0.7691
78 29 1.8119 12.6543 3.6106 0.8753 0.0000 0.8507
79 29 1.8081 10.8454 5.4242 0.9241 0.0000 0.8291
80 29 0.0047 12.6500 5.4210 0.8650 0.0000 0.8764
81 29 -0.0198 10.8505 7.2286 0.9767 0.0000 0.8019
82 29 1.7985 12.6359 7.2313 0.9282 0.0000 0.8709
83 29 1.8092 10.8420 9.0378 1.0915 0.0000 0.9920
84 29 0.0065 12.6525 9.0279 1.1285 0.0000 0.8000
85 29 0.0037 10.8464 10.8409 0.7857 0.0000 0.9527
86 29 1.8062 12.6492 10.8530 1.1326 0.0000 0.9368
87 29 1.8009 10.8587 12.6426 0.8317 0.0000 0.9352
88 29 0.0119 12.6330 12.6450 1.0325 0.0000 0.9153
89 29 -0.0144 10.8449 14.4564 0.9729 0.0000 0.8064
90 29 1.8097 12.6332 14.4655 1.0983 0.0000 0.9676
91 29 1.8048 10.8559 16.2713 1.1378 0.0000 0.7585
92 29 0.0041 12.6438 16.2691 1.0603 0.0000 0.9609
93 29 0.0169 10.8357 18.0744 1.1020 0.0000 0.7962
94 29 1.8099 12.6438 18.0795 1.0092 0.0000 0.9910
95 29 1.8193 10.8349 19.8893 1.0523 0.0000 0.9918
96 29 -0.0057 12.6421 19.8861 0.9198 0.0000 0.9396
97 29 0.0008 14.4472 -0.0029 0.9263 0.0000 0.7694
98 29 1.8105 16.2715 -0.0031 1.1106 0.0000 0.8943
99 29 1.8142 14.4466 1.8045 0.8573 0.0000 0.7550
100 29 0.0006 16.2723 1.8078 1.0908 0.0000 0.8597
101 29 0.0095 14.4596 3.6127 0.7832 0.0000 0.7429
102 29 1.8095 16.2659 3.6128 0.8856 0.0000 0.7773
103 29 1.8067 14.4597 5.4319 0.9110 0.0000 0.7601
104 29 -0.0003 16.2662 5.4274 0.9845 0.0000 0.7550
105 29 0.0142 14.4639 7.2249 0.8003 0.0000 0.9950
106 29 1.8107 16.2586 7.2400 1.0829 0.0000 0.8177
107 29 1.8083 14.4542 9.0337 1.1235 0.0000 0.8827
108 29 0.0023 16.2660 9.0438 1.1450 0.0000 0.7561
109 29 -0.0037 14.4693 10.8449 0.8646 0.0000 0.7674
110 29 1.8125 16.2744 10.8427 0.9824 0.0000 0.9140
111 29 1.7982 14.4639 12.6610 0.8439 0.0000 0.8669
112 29 0.0048 16.2623 12.6496 1.0912 0.0000 0.7680
113 29 0.0038 14.4699 14.4616 1.1008 0.0000 0.8883
114 29 1.8079 16.2806 14.4737 0.8416 0.0000 0.7531
115 29 1.8036 14.4645 16.2675 1.1378 0.0000 0.7510
116 29 -0.0074 16.2787 16.2630 0.8887 0.0000 0.7413
117 29 0.0038 14.4569 18.0858 0.7886 0.0000 0.8770
118 29 1.8090 16.2766 18.0695 1.0726 0.0000 0.7823
119 29 1.8085 14.4680 19.8717 1.0253 0.0000 0.9945
120 29 -0.0095 16.2722 19.8866 1.0623 0.0000 0.8763
121 29 -0.0025 18.0675 0.0009 0.7826 0.0000 0.9397
122 29 1.8049 19.8891 -0.0046 0.9364 0.0000 0.8273
123 29 1.8114 18.0969 1.7986 0.8830 0.0000 0.9715
124 29 0.0030 19.8924 1.8060 1.1323 0.0000 0.7772
125 29 -0.0047 18.0759 3.6263 0.8750 0.0000 0.9428
126 29 1.8103 19.8973 3.6275 1.1085 0.0000 0.9193
127 29 1.8146 18.0737 5.4277 0.9387 0.0000 0.8233
128 29 0.0037 19.8815 5.4187 0.7963 0.0000 0.8044
129 29 0.0013 18.0703 7.2403 1.0142 0.0000 0.7385
130 29 1.8083 19.8998 7.2294 1.0361 0.0000 0.8955
131 29 1.8154 18.0819 9.0322 1.0375 0.0000 0.9411
132 29 -0.0073 19.8843 9.0361 0.9512 0.0000 0.9344
133 29 0.0039 18.0725 10.8459 0.8875 0.0000 0.9873
134 29 1.8003 19.8693 10.8492 0.8911 0.0000 0.8696
135 29 1.8066 18.0680 12.6530 0.9040 0.0000 0.9309
136 29 0.0029 19.8828 12.6574 1.1034 0.0000 0.9293
137 29 0.0058 18.0749 14.4616 0.8829 0.0000 0.8465
138 29 1.8011 19.8785 14.4603 0.8790 0.0000 0.8956
139 29 1.8014 18.0744 16.2569 0.9396 0.0000 0.9671
140 29 -0.0013 19.8882 16.2708 0.8574 0.0000 0.7408
141 29 0.0005 18.0744 18.0848 1.1337 0.0000 0.7865
142 29 1.8198 19.8910 18.0702 0.8712 0.0000 0.7409
143 29 1.8173 18.0794 19.8902 0.7924 0.0000 0.9456
144 29 -0.0096 19.8958 19.8873 0.9615 0.0000 0.8429
145 29 3.6038 0.0035 0.0003 0.9466 0.0000 0.7683
146 29 5.4309 1.8126 0.0052 1.1383 0.0000 0.8759
147 29 5.4253 0.0003 1.8147 0.8339 0.0000 0.7725
148 29 3.6182 1.7956 1.8034 1.0682 0.0000 0.9826
149 29 3.6177 0.0020 3.6085 0.8409 0.0000 0.9094
150 29 5.4209 1.8120 3.6199 0.9148 0.0000 0.8685
151 29 5.4180 0.0032 5.4295 0.7883 0.0000 0.8145
152 29 3.6216 1.7969 5.4208 0.9751 0.0000 0.9151
153 29 3.6212 -0.0035 7.2334 0.8124 0.0000 0.7742
154 29 5.4292 1.7900 7.2166 1.0367 0.0000 0.7383
155 29 5.4042 -0.0025 9.0428 0.9766 0.0000 0.8650
156 29 3.6097 1.8047 9.0364 0.7899 0.0000 0.8025
157 29 3.6097 -0.0036 10.8547 0.8161 0.0000 0.9344
158 29 5.4288 1.7994 10.8537 1.0791 0.0000 0.7881
159 29 5.4317 -0.0002 12.6365 1.0208 0.0000 0.8359
160 29 3.6129 1.8011 12.6524 0.9496 0.0000 0.9184
161 29 3.6238 0.0043 14.4572 1.1203 0.0000 0.8770
162 29 5.4252 1.8072 14.4577 0.8138 0.0000 0.7705
163 29 5.4257 0.0082 16.2575 0.9284 0.0000 0.8148
164 29 3.6056 1.8031 16.2705 0.8149 0.0000 0.8133
165 29 3.6174 0.0075 18.0752 0.7719 0.0000 0.9923
166 29 5.4181 1.8069 18.0716 0.7702 0.0000 0.8255
167 29 5.4029 0.0003 19.8852 0.9970 0.0000 0.7994
168 29 3.6198 1.8084 19.8836 0.8666 0.0000 0.8888
169 29 3.6140 3.6164 -0.0124 1.0240 0.0000 0.9492
170 29 5.4255 5.4268 -0.0216 0.7851 0.0000 0.8209
171 29 5.4247 3.6105 1.7955 0.8278 0.0000 0.9043
172 29 3.6186 5.4315 1.8150 0.9323 0.0000 0.8022
173 29 3.6255 3.6230 3.6244 0.8867 0.0000 0.9001
174 29 5.4264 5.4086 3.6134 1.0634 0.0000 0.8600
175 29 5.4295 3.6113 5.4334 0.8521 0.0000 0.8151
176 29 3.6287 5.4220 5.4256 1.0429 0.0000 0.7914
177 29 3.6160 3.6151 7.2455 0.9925 0.0000 0.9519
178 29 5.4139 5.4268 7.2382 0.7722 0.0000 0.9440
179 29 5.4156 3.6156 9.0383 1.1199 0.0000 0.8683
180 29 3.6237 5.4161 9.0339 0.9108 0.0000 0.8899
181 29 3.6079 3.6152 10.8444 0.8607 0.0000 0.9722
182 29 5.4195 5.4201 10.8469 0.7998 0.0000 0.7870
183 29 5.4140 3.6108 12.6538 1.1013 0.0000 0.8224
184 29 3.6091 5.4192 12.6645 0.8970 0.0000 0.8277
185 29 3.6069 3.6063 14.4630 0.9140 0.0000 0.8967
186 29 5.4271 5.4200 14.4531 0.9203 0.0000 0.8554
187 29 5.4172 3.6150 16.2618 1.1005 0.0000 0.8486
188 29 3.6134 5.4295 16.2671 0.9407 0.0000 0.8070
189 29 3.6153 3.6094 18.0800 1.0959 0.0000 0.9828
190 29 5.4322 5.4224 18.0835 0.8391 0.0000 0.7741
191 29 5.4157 3.6200 19.8882 0.9944 0.0000 0.8994
192 29 3.6246 5.4151 19.8736 1.0694 0.0000 0.9573
193 29 3.6097 7.2143 -0.0033 0.9453 0.0000 0.8471
194 29 5.4133 9.0423 0.0106 0.9625 0.0000 0.8689
195 29 5.4269 7.2309 1.8029 0.8751 0.0000 0.8609
196 29 3.6156 9.0328 1.8124 0.9929 0.0000 0.9039
197 29 3.6136 7.2276 3.6144 1.0725 0.0000 0.8333
198 29 5.4088 9.0215 3.6123 0.7962 0.0000 0.8801
199 29 5.4350 7.2353 5.4268 1.0550 0.0000 0.8413
200 29 3.6285 9.0447 5.4205 1.1126 0.0000 0.7816
201 29 3.6168 7.2247 7.2314 0.9511 0.0000 0.9756
202 29 5.4296 9.0588 7.2326 1.0690 0.0000 0.9016
203 29 5.4296 7.2221 9.0507 1.0338 0.0000 0.9502
204 29 3.6211 9.0313 9.0439 1.0600 0.0000 0.8990
205 29 3.6171 7.2313 10.8377 0.8546 0.0000 0.7928
206 29 5.4167 9.0450 10.8454 0.8928 0.0000 0.8185
207 29 5.4151 7.2367 12.6517 1.0402 0.0000 0.8032
208 29 3.6125 9.0313 12.6566 0.7768 0.0000 0.9452
209 29 3.6178 7.2221 14.4735 0.9657 0.0000 0.7903
210 29 5.4160 9.0410 14.4549 1.1114 0.0000 0.8672
211 29 5.4142 7.2413 16.2592 0.9246 0.0000 0.9267
212 29 3.6230 9.0419 16.2614 0.8185 0.0000 0.7488
213 29 3.6168 7.2232 18.0782 0.8086 0.0000 0.8247
214 29 5.4294 9.0501 18.0857 0.9722 0.0000 0.9850
215 29 5.4200 7.2357 19.8798 1.0576 0.0000 0.7687
216 29 3.6102 9.0274 19.8817 1.0263 0.0000 0.9784
217 29 3.6204 10.8442 -0.0062 1.0212 0.0000 0.7441
218 29 5.4196 12.6406 -0.0058 1.1255 0.0000 0.9505
219 29 5.4150 10.8481 1.8185 1.1437 0.0000 0.8208
220 29 3.6027 12.6591 1.7992 0.9330 0.0000 0.8393
221 29 3.6142 10.8364 3.6074 0.9602 0.0000 0.7403
222 29 5.4272 12.6485 3.6176 1.1409 0.0000 0.9827
223 29 5.4176 10.8417 5.4265 0.8947 0.0000 0.8473
224 29 3.6235 12.6483 5.4264 0.8163 0.0000 0.9842
225 29 3.6180 10.8410 7.2249 1.0500 0.0000 0.7940
226 29 5.4278 12.6512 7.2250 0.9872 0.0000 0.9844
227 29 5.4158 10.8476 9.0203 0.9478 0.0000 0.9503
228 29 3.6245 12.6422 9.0307 0.9285 0.0000 0.8902
229 29 3.6189 10.8444 10.8484 0.9305 0.0000 0.7951
230 29 5.4169 12.6454 10.8493 0.7719 0.0000 0.9485
231 29 5.4156 10.8486 12.6725 1.0997 0.0000 0.8232
232 29 3.6315 12.6625 12.6423 1.1271 0.0000 0.9710
233 29 3.6127 10.8416 14.4577 0.9954 0.0000 0.7530
234 29 5.4185 12.6579 14.4563 0.8101 0.0000 0.8657
235 29 5.4202 10.8528 16.2637 1.1136 0.0000 0.8874
236 29 3.6108 12.6613 16.2658 1.0388 0.0000 0.9371
237 29 3.6076 10.8353 18.0700 1.0754 0.0000 0.7672
238 29 5.4304 12.6507 18.0745 0.8707 0.0000 0.9281
239 29 5.4260 10.8537 19.8784 0.7755 0.0000 0.7924
240 29 3.6211 12.6513 19.8855 1.0282 0.0000 0.9353
241 29 3.6101 14.4600 -0.0037 1.0979 0.0000 0.9196
242 29 5.4313 16.2715 -0.0073 0.8294 0.0000 0.7598
243 29 5.4228 14.4518 1.8060 0.8894 0.0000 0.9860
244 29 3.6151 16.2619 1.8175 0.8360 0.0000 0.9325
245 29 3.6160 14.4540 3.6124 0.7958 0.0000 0.9295
246 29 5.4206 16.2653 3.6097 0.8423 0.0000 0.9558
247 29 5.4262 14.4560 5.4180 1.0974 0.0000 0.8815
248 29 3.6169 16.2722 5.4246 0.8610 0.0000 0.8025
249 29 3.6136 14.4585 7.2395 1.0782 0.0000 0.9648
250 29 5.4362 16.2692 7.2338 1.0913 0.0000 0.9292
251 29 5.4195 14.4660 9.0394 1.1415 0.0000 0.8175
252 29 3.6096 16.2642 9.0346 0.8578 0.0000 0.7430
253 29 3.6191 14.4504 10.8443 0.7770 0.0000 0.8234
254 29 5.4279 16.2593 10.8300 0.8752 0.0000 0.8107
255 29 5.4324 14.4522 12.6592 0.8054 0.0000 0.8899
256 29 3.6169 16.2581 12.6548 1.0406 0.0000 0.9493
257 29 3.6162 14.4540 14.4609 0.7886 0.0000 0.8840
258 29 5.4252 16.2689 14.4583 1.0026 0.0000 0.8346
259 29 5.4335 14.4572 16.2775 0.8362 0.0000 0.9502
260 29 3.6112 16.2653 16.2646 1.0156 0.0000 0.9595
261 29 3.6092 14.4644 18.0827 0.7935 0.0000 0.9391
262 29 5.4246 16.2456 18.0729 1.0817 0.0000 0.8882
263 29 5.4186 14.4498 19.8827 0.8929 0.0000 0.7944
264 29 3.6172 16.2663 19.8731 1.0167 0.0000 0.8875
265 29 3.6153 18.0877 -0.0003 0.8033 0.0000 0.8468
266 29 5.4351 19.8734 -0.0040 1.0564 0.0000 0.7398
267 29 5.4192 18.0837 1.8069 0.9920 0.0000 0.8236
268 29 3.6086 19.8967 1.8219 1.0532 0.0000 0.7550
269 29 3.6103 18.0688 3.6221 0.8578 0.0000 0.9158
270 29 5.4241 19.8809 3.6134 0.9560 0.0000 0.7935
271 29 5.4145 18.0729 5.4272 1.1009 0.0000 0.9333
272 29 3.6145 19.8815 5.4214 1.0301 0.0000 0.7630
273 29 3.6142 18.0798 7.2266 0.8773 0.0000 0.8446
274 29 5.4271 19.8871 7.2365 1.0357 0.0000 0.9851
275 29 5.4207 18.0783 9.0347 1.0400 0.0000 0.8783
276 29 3.6020 19.8915 9.0369 1.0323 0.0000 0.7875
277 29 3.6074 18.0705 10.8362 0.8772 0.0000 0.8902
278 29 5.4172 19.9010 10.8614 0.7814 0.0000 0.8363
279 29 5.4073 18.0878 12.6576 1.0843 0.0000 0.8204
280 29 3.6207 19.8820 12.6484 1.1046 0.0000 0.8317
281 29 3.6127 18.0685 14.4533 0.9024 0.0000 0.7994
282 29 5.4117 19.8761 14.4620 1.0056 0.0000 0.9497
283 29 5.4190 18.0746 16.2725 1.0000 0.0000 0.8305
284 29 3.6100 19.8797 16.2747 1.0823 0.0000 0.8992
285 29 3.6137 18.0736 18.0754 0.7739 0.0000 0.8680
286 29 5.4275 19.8818 18.0838 0.9605 0.0000 0.9842
287 29 5.4048 18.0738 19.8804 0.8764 0.0000 0.8678
288 29 3.6140 19.8805 19.8904 1.0722 0.0000 0.7827
289 29 7.2178 0.0002 -0.0046 0.8405 0.0000 0.7833
290 29 9.0321 1.8098 -0.0028 1.1266 0.0000 0.8921
291 29 9.0303 0.0011 1.8135 0.8698 0.0000 0.8059
292 29 7.2331 1.7948 1.8149 0.9504 0.0000 0.7527
293 29 7.2328 -0.0019 3.6134 0.9592 0.0000 0.9385
294 29 9.0386 1.8038 3.6097 0.8970 0.0000 0.7729
295 29 9.0346 -0.0070 5.4251 1.0603 0.0000 0.9648
296 29 7.2343 1.8015 5.4302 1.1186 0.0000 0.8106
297 29 7.2287 0.0031 7.2289 1.0418 0.0000 0.8045
298 29 9.0298 1.8071 7.2278 0.9833 0.0000 0.9279
299 29 9.0435 -0.0111 9.0402 0.8878 0.0000 0.8544
300 29 7.2332 1.8001 9.0390 0.9856 0.0000 0.7421
301 29 7.2371 0.0055 10.8470 0.9437 0.0000 0.8734
302 29 9.0447 1.8160 10.8481 1.0404 0.0000 0.8542
303 29 9.0511 -0.0060 12.6498 0.9095 0.0000 0.9833
304 29 7.2224 1.8028 12.6600 1.0568 0.0000 0.9916
305 29 7.2298 -0.0070 14.4587 0.8224 0.0000 0.7451
306 29 9.0268 1.8092 14.4656 1.0147 0.0000 0.7776
307 29 9.0268 -0.0008 16.2663 1.0111 0.0000 0.7556
308 29 7.2280 1.8125 16.2642 0.9113 0.0000 0.7472
309 29 7.2293 -0.0030 18.0703 0.8272 0.0000 0.9803
310 29 9.0484 1.8133 18.0637 0.8656 0.0000 0.8214
311 29 9.0407 -0.0006 19.8823 1.0340 0.0000 0.8532
312 29 7.2387 1.8123 19.8923 0.7934 0.0000 0.9863
313 29 7.2463 3.6116 -0.0001 0.8324 0.0000 0.8197
314 29 9.0455 5.4269 -0.0070 0.7793 0.0000 0.9842
315 29 9.0388 3.6225 1.8121 0.8884 0.0000 0.7419
316 29 7.2258 5.4270 1.8200 0.9832 0.0000 0.7738
317 29 7.2320 3.6149 3.6112 1.1010 0.0000 0.8465
318 29 9.0456 5.4285 3.6132 1.0185 0.0000 0.8316
319 29 9.0409 3.6053 5.4151 0.8654 0.0000 0.9114
320 29 7.2262 5.4150 5.4374 0.7662 0.0000 0.9632
321 29 7.2290 3.6101 7.2329 0.7768 0.0000 0.9059
322 29 9.0420 5.4197 7.2328 0.8198 0.0000 0.9262
323 29 9.0371 3.6168 9.0310 1.1193 0.0000 0.7483
324 29 7.2336 5.4158 9.0170 0.9481 0.0000 0.9378
325 29 7.2325 3.6222 10.8462 0.8504 0.0000 0.8815
326 29 9.0390 5.4306 10.8454 0.8325 0.0000 0.8709
327 29 9.0440 3.6148 12.6608 0.7733 0.0000 0.9008
328 29 7.2380 5.4252 12.6473 0.8131 0.0000 0.8907
329 29 7.2302 3.6240 14.4656 0.9902 0.0000 0.8341
330 29 9.0548 5.4154 14.4609 1.1309 0.0000 0.9858
331 29 9.0412 3.6205 16.2722 0.7992 0.0000 0.9821
332 29 7.2340 5.4255 16.2654 0.9787 0.0000 0.8067
333 29 7.2299 3.6115 18.0677 0.8142 0.0000 0.8294
334 29 9.0407 5.4296 18.0749 0.7652 0.0000 0.9840
335 29 9.0345 3.6067 19.8802 0.8706 0.0000 0.9444
336 29 7.2387 5.4212 19.8878 1.1197 0.0000 0.8783
337 29 7.2238 7.2266 -0.0052 0.7906 0.0000 0.8872
338 29 9.0299 9.0406 -0.0003 0.7695 0.0000 0.9548
339 29 9.0420 7.2230 1.8011 0.8714 0.0000 0.8620
340 29 7.2224 9.0342 1.8119 1.1186 0.0000 0.7811
341 29 7.2281 7.2447 3.6140 0.8111 0.0000 0.8830
342 29 9.0335 9.0305 3.6116 0.8745 0.0000 0.8547
343 29 9.0422 7.2371 5.4292 0.7931 0.0000 0.9969
344 29 7.2410 9.0265 5.4134 1.0038 0.0000 0.8914
345 29 7.2282 7.2356 7.2322 0.8214 0.0000 0.8166
346 29 9.0398 9.0234 7.2338 0.9539 0.0000 0.7400
347 29 9.0437 7.2306 9.0377 0.9595 0.0000 0.8635
348 29 7.2194 9.0369 9.0447 0.9582 0.0000 0.8601
349 29 7.2355 7.2261 10.8391 0.8701 0.0000 0.8432
350 29 9.0371 9.0346 10.8377 0.7981 0.0000 0.9455
351 29 9.0317 7.2225 12.6422 1.0215 0.0000 0.9706
352 29 7.2362 9.0344 12.6505 1.0504 0.0000 0.8457
353 29 7.2323 7.2364 14.4607 1.0991 0.0000 0.9095
354 29 9.0343 9.0374 14.4629 1.1001 0.0000 0.7839
355 29 9.0359 7.2369 16.2600 0.9281 0.0000 0.8839
356 29 7.2307 9.0405 16.2668 1.0292 0.0000 0.8681
357 29 7.2222 7.2313 18.0805 0.7672 0.0000 0.8614
358 29 9.0324 9.0368 18.0729 0.9657 0.0000 0.9887
359 29 9.0474 7.2297 19.8853 0.8143 0.0000 0.8085
360 29 7.2362 9.0289 19.8767 0.9142 0.0000 0.9003
361 29 7.2332 10.8403 -0.0101 0.9964 0.0000 0.8175
362 29 9.0376 12.6558 -0.0070 1.0944 0.0000 0.8394
363 29 9.0487 10.8423 1.7989 0.9552 0.0000 0.9316
364 29 7.2251 12.6593 1.8065 0.9512 0.0000 0.8121
365 29 7.2217 10.8572 3.6245 1.1302 0.0000 0.9729
366 29 9.0385 12.6483 3.6158 0.8923 0.0000 0.9136
367 29 9.0435 10.8367 5.4123 1.0967 0.0000 0.8179
368 29 7.2316 12.6595 5.4190 0.7957 0.0000 0.7616
369 29 7.2328 10.8352 7.2272 0.8205 0.0000 0.7688
370 29 9.0314 12.6598 7.2257 0.7889 0.0000 0.9473
371 29 9.0430 10.8425 9.0405 1.0487 0.0000 0.8595
372 29 7.2232 12.6617 9.0345 1.1240 0.0000 0.9443
373 29 7.2300 10.8505 10.8461 1.0593 0.0000 0.7836
374 29 9.0211 12.6459 10.8422 0.9591 0.0000 0.8873
375 29 9.0397 10.8467 12.6403 1.0121 0.0000 0.8138
376 29 7.2386 12.6471 12.6557 0.9061 0.0000 0.9428
377 29 7.2387 10.8545 14.4699 1.0495 0.0000 0.7934
378 29 9.0404 12.6400 14.4620 0.7834 0.0000 0.7380
379 29 9.0568 10.8397 16.2715 0.8018 0.0000 0.9256
380 29 7.2310 12.6468 16.2636 1.0884 0.0000 0.7500
381 29 7.2232 10.8411 18.0734 1.0115 0.0000 0.7469
382 29 9.0379 12.6415 18.0755 1.0683 0.0000 0.7462
383 29 9.0306 10.8495 19.8815 0.7855 0.0000 0.8215
384 29 7.2237 12.6544 19.8837 0.8299 0.0000 0.9529
385 29 7.2254 14.4584 0.0023 0.8350 0.0000 0.9637
386 29 9.0305 16.2597 0.0053 0.9565 0.0000 0.8167
387 29 9.0357 14.4556 1.8105 0.8217 0.0000 0.8068
388 29 7.2284 16.2620 1.8084 0.9805 0.0000 0.8662
389 29 7.2326 14.4609 3.6179 0.8677 0.0000 0.8438
390 29 9.0333 16.2545 3.6221 1.0105 0.0000 0.9746
391 29 9.0354 14.4674 5.4315 0.9449 0.0000 0.7523
392 29 7.2263 16.2581 5.4227 0.7640 0.0000 0.7454
393 29 7.2287 14.4581 7.2381 0.7799 0.0000 0.7389
394 29 9.0283 16.2729 7.2302 1.0842 0.0000 0.9637
395 29 9.0450 14.4574 9.0322 0.9667 0.0000 0.8141
396 29 7.2212 16.2614 9.0362 0.9613 0.0000 0.9569
397 29 7.2434 14.4719 10.8551 0.9171 0.0000 0.9173
398 29 9.0362 16.2671 10.8521 1.0344 0.0000 0.7560
399 29 9.0343 14.4592 12.6444 0.9337 0.0000 0.7463
400 29 7.2152 16.2702 12.6541 0.9707 0.0000 0.7711
401 29 7.2345 14.4600 14.4569 1.1001 0.0000 0.7683
402 29 9.0294 16.2743 14.4616 1.1180 0.0000 0.8383
403 29 9.0336 14.4676 16.2648 0.9701 0.0000 0.8048
404 29 7.2154 16.2735 16.2784 0.9371 0.0000 0.7984
405 29 7.2317 14.4669 18.0823 0.9231 0.0000 0.9735
406 29 9.0350 16.2599 18.0634 0.8409 0.0000 0.7750
407 29 9.0192 14.4589 19.8571 1.1000 0.0000 0.9873
408 29 7.2252 16.2673 19.8850 1.1326 0.0000 0.8498
409 29 7.2247 18.0848 -0.0085 0.8364 0.0000 0.9352
410 29 9.0390 19.8780 -0.0082 0.8089 0.0000 0.9957
411 29 9.0396 18.0763 1.7968 0.9465 0.0000 0.9485
412 29 7.2223 19.8802 1.8138 1.1399 0.0000 0.9700
413 29 7.2292 18.0736 3.6048 1.0859 0.0000 0.7395
414 29 9.0266 19.8890 3.6115 1.0431 0.0000 0.7728
415 29 9.0390 18.0861 5.4173 0.7701 0.0000 0.9733
416 29 7.2280 19.8865 5.4150 0.9033 0.0000 0.8779
417 29 7.2443 18.0632 7.2288 0.8576 0.0000 0.7876
418 29 9.0245 19.8853 7.2322 0.8227 0.0000 0.8875
419 29 9.0429 18.0810 9.0311 0.8522 0.0000 0.9920
420 29 7.2299 19.8764 9.0381 1.1164 0.0000 0.9112
421 29 7.2244 18.0758 10.8624 1.0458 0.0000 0.9036
422 29 9.0330 19.8781 10.8398 1.1391 0.0000 0.8160
423 29 9.0360 18.0662 12.6493 1.0121 0.0000 0.7558
424 29 7.2283 19.8807 12.6398 0.8170 0.0000 0.9877
425 29 7.2291 18.0692 14.4537 0.7697 0.0000 0.8517
426 29 9.0464 19.8704 14.4513 1.1214 0.0000 0.9610
427 29 9.0311 18.0875 16.2675 1.0599 0.0000 0.7782
428 29 7.2338 19.8850 16.2719 0.7660 0.0000 0.9307
429 29 7.2353 18.0785 18.0759 0.9033 0.0000 0.7807
430 29 9.0463 19.8774 18.0834 0.7969 0.0000 0.7394
431 29 9.0551 18.0812 19.8761 1.0479 0.0000 0.8977
432 29 7.2309 19.8809 19.8902 1.1247 0.0000 0.8849
433 29 10.8461 0.0031 -0.0123 1.1392 0.0000 0.8935
434 29 12.6643 1.8030 -0.0014 1.0720 0.0000 0.8908
435 29 12.6467 -0.0033 1.8135 0.7772 0.0000 0.9021
436 29 10.8523 1.7952 1.8075 1.1195 0.0000 0.9083
437 29 10.8423 0.0033 3.6173 0.9864 0.0000 0.8726
438 29 12.6423 1.8070 3.6097 1.1054 0.0000 0.9240
439 29 12.6517 -0.0045 5.4319 1.0743 0.0000 0.8312
440 29 10.8395 1.8095 5.4214 0.8769 0.0000 0.9740
441 29 10.8409 0.0010 7.2255 0.8460 0.0000 0.7685
442 29 12.6531 1.8031 7.2453 0.9059 0.0000 0.8613
443 29 12.6552 0.0125 9.0367 0.9067 0.0000 0.9666
444 29 10.8429 1.8061 9.0383 1.0083 0.0000 0.9860
445 29 10.8342 -0.0060 10.8439 1.1360 0.0000 0.8366
446 29 12.6552 1.8077 10.8518 1.1143 0.0000 0.9867
447 29 12.6583 -0.0062 12.6488 1.0971 0.0000 0.8516
448 29 10.8544 1.8104 12.6575 1.0416 0.0000 0.9142
449 29 10.8432 0.0162 14.4591 0.9932 0.0000 0.7519
450 29 12.6521 1.8070 14.4648 0.7961 0.0000 0.8506
451 29 12.6521 0.0028 16.2589 0.8209 0.0000 0.8984
452 29 10.8570 1.8046 16.2726 0.8466 0.0000 0.7898
453 29 10.8416 0.0004 18.0769 0.8016 0.0000 0.7597
454 29 12.6641 1.7994 18.0757 0.9508 0.0000 0.8022
455 29 12.6545 0.0038 19.8779 0.9871 0.0000 0.8021
456 29 10.8429 1.7998 19.8760 1.0338 0.0000 0.9133
457 29 10.8304 3.6159 -0.0041 0.9502 0.0000 0.7389
458 29 12.6541 5.4240 0.0031 1.1097 0.0000 0.9798
459 29 12.6536 3.6164 1.8080 1.0060 0.0000 0.7673
460 29 10.8432 5.4334 1.8086 0.8789 0.0000 0.8493
461 29 10.8324 3.6025 3.6147 0.9598 0.0000 0.8321
462 29 12.6522 5.4220 3.6106 0.9016 0.0000 0.9383
463 29 12.6537 3.6245 5.4232 1.0031 0.0000 0.9178
464 29 10.8368 5.4182 5.4160 0.8514 0.0000 0.9918
465 29 10.8515 3.6123 7.2214 0.8083 0.0000 0.8948
466 29 12.6556 5.4384 7.2344 1.0293 0.0000 0.7540
467 29 12.6567 3.6248 9.0334 1.0210 0.0000 0.8486
468 29 10.8366 5.4157 9.0375 0.9172 0.0000 0.8174
469 29 10.8430 3.5933 10.8462 0.9291 0.0000 0.7650
470 29 12.6494 5.4189 10.8507 0.8865 0.0000 0.8202
471 29 12.6503 3.6125 12.6561 0.9782 0.0000 0.7999
472 29 10.8547 5.4290 12.6624 1.0450 0.0000 0.7436
473 29 10.8440 3.6145 14.4614 1.0230 0.0000 0.7792
474 29 12.6510 5.4253 14.4607 1.1297 0.0000 0.7443
475 29 12.6610 3.6154 16.2713 1.0911 0.0000 0.7537
476 29 10.8400 5.4214 16.2612 1.0947 0.0000 0.7493
477 29 10.8587 3.6274 18.0790 0.9260 0.0000 0.7554
478 29 12.6507 5.4219 18.0811 1.0013 0.0000 0.9184
479 29 12.6512 3.6114 19.8800 1.0666 0.0000 0.7962
480 29 10.8330 5.4226 19.8775 0.8982 0.0000 0.8880
481 29 10.8434 7.2364 0.0095 1.0149 0.0000 0.9640
482 29 12.6556 9.0352 -0.0083 1.0767 0.0000 0.9786
483 29 12.6518 7.2254 1.8153 0.7760 0.0000 0.8574
484 29 10.8456 9.0358 1.8087 1.0695 0.0000 0.7672
485 29 10.8458 7.2224 3.6116 0.9813 0.0000 0.7658
486 29 12.6547 9.0383 3.6075 1.1097 0.0000 0.9096
487 29 12.6484 7.2348 5.4220 0.8466 0.0000 0.8382
488 29 10.8396 9.0383 5.4284 0.8178 0.0000 0.9848
489 29 10.8403 7.2209 7.2246 0.9890 0.0000 0.9583
490 29 12.6403 9.0358 7.2231 0.8642 0.0000 0.9141
491 29 12.6475 7.2260 9.0498 1.0611 0.0000 0.9962
492 29 10.8464 9.0255 9.0438 0.8054 0.0000 0.9631
493 29 10.8446 7.2310 10.8423 1.0318 0.0000 0.9064
494 29 12.6610 9.0401 10.8485 1.0780 0.0000 0.9414
495 29 12.6469 7.2252 12.6503 0.7715 0.0000 0.9201
496 29 10.8679 9.0349 12.6411 1.0183 0.0000 0.7669
497 29 10.8475 7.2210 14.4556 1.1372 0.0000 0.9070
498 29 12.6448 9.0476 14.4625 0.9104 0.0000 0.7663
499 29 12.6492 7.2355 16.2702 1.0013 0.0000 0.8065
500 29 10.8558 9.0430 16.2746 1.0774 0.0000 0.8531
501 29 10.8385 7.2124 18.0660 1.0433 0.0000 0.7750
502 29 12.6531 9.0419 18.0823 0.8009 0.0000 0.9665
503 29 12.6555 7.2222 19.8866 0.9573 0.0000 0.9855
504 29 10.8467 9.0326 19.8786 1.1130 0.0000 0.9347
505 29 10.8451 10.8416 0.0079 0.8242 0.0000 0.8501
506 29 12.6491 12.6478 0.0047 0.8667 0.0000 0.8575
507 29 12.6556 10.8432 1.8081 0.7642 0.0000 0.7725
508 29 10.8494 12.6520 1.8040 0.8174 0.0000 0.7517
509 29 10.8418 10.8386 3.6175 0.8674 0.0000 0.8438
510 29 12.6514 12.6687 3.6143 0.8998 0.0000 0.8533
511 29 12.6462 10.8416 5.4251 1.0519 0.0000 0.9848
512 29 10.8429 12.6591 5.4245 1.0024 0.0000 0.7529
513 29 10.8321 10.8465 7.2204 1.0345 0.0000 0.9071
514 29 12.6425 12.6445 7.2226 0.8189 0.0000 0.8924
515 29 12.6527 10.8406 9.0373 1.1359 0.0000 0.9290
516 29 10.8530 12.6566 9.0426 0.9072 0.0000 0.7772
517 29 10.8468 10.8490 10.8348 0.9979 0.0000 0.7933
518 29 12.6606 12.6538 10.8389 0.8547 0.0000 0.8805
519 29 12.6562 10.8405 12.6531 0.9629 0.0000 0.7780
520 29 10.8498 12.6447 12.6579 0.9288 0.0000 0.9241
521 29 10.8505 10.8606 14.4434 1.0710 0.0000 0.7643
522 29 12.6485 12.6472 14.4603 0.8399 0.0000 0.8983
523 29 12.6425 10.8389 16.2624 1.1214 0.0000 0.8694
524 29 10.8355 12.6460 16.2550 0.7911 0.0000 0.8767
525 29 10.8429 10.8312 18.0754 0.8219 0.0000 0.9934
526 29 12.6529 12.6497 18.0744 0.8024 0.0000 0.9343
527 29 12.6542 10.8466 19.8854 0.9574 0.0000 0.9225
528 29 10.8419 12.6473 19.8861 0.9674 0.0000 0.8554
529 29 10.8458 14.4448 -0.0092 1.1124 0.0000 0.8077
530 29 12.6562 16.2671 0.0060 0.8037 0.0000 0.9707
531 29 12.6506 14.4671 1.8143 1.0205 0.0000 0.8605
532 29 10.8372 16.2608 1.8077 0.8549 0.0000 0.9070
533 29 10.8443 14.4518 3.6088 0.7810 0.0000 0.7975
534 29 12.6531 16.2621 3.6164 0.8319 0.0000 0.9362
535 29 12.6528 14.4645 5.4187 0.8723 0.0000 0.8516
536 29 10.8395 16.2758 5.4177 1.0006 0.0000 0.7989
537 29 10.8480 14.4580 7.2364 0.9553 0.0000 0.9653
538 29 12.6715 16.2579 7.2363 1.0403 0.0000 0.8187
539 29 12.6502 14.4643 9.0399 0.8549 0.0000 0.7677
540 29 10.8346 16.2728 9.0308 1.0957 0.0000 0.8629
541 29 10.8452 14.4538 10.8462 0.8890 0.0000 0.7413
542 29 12.6501 16.2633 10.8395 1.1104 0.0000 0.8386
543 29 12.6499 14.4634 12.6540 0.9727 0.0000 0.9576
544 29 10.8361 16.2777 12.6576 0.8629 0.0000 0.7839
545 29 10.8342 14.4678 14.4438 1.0993 0.0000 0.8857
546 29 12.6580 16.2655 14.4567 1.1396 0.0000 0.8196
547 29 12.6399 14.4612 16.2695 0.8992 0.0000 0.8761
548 29 10.8539 16.2685 16.2665 1.0635 0.0000 0.8182
549 29 10.8511 14.4587 18.0687 0.8307 0.0000 0.7566
550 29 12.6472 16.2587 18.0877 0.7767 0.0000 0.7770
551 29 12.6629 14.4654 19.8754 0.9725 0.0000 0.9716
552 29 10.8575 16.2577 19.8888 1.1009 0.0000 0.7672
553 29 10.8419 18.0676 0.0016 1.0614 0.0000 0.8515
554 29 12.6515 19.8896 -0.0012 0.7833 0.0000 0.8509
555 29 12.6425 18.0674 1.8048 1.0323 0.0000 0.9552
556 29 10.8414 19.8773 1.7961 0.7858 0.0000 0.8254
557 29 10.8474 18.0643 3.6217 0.9381 0.0000 0.9041
558 29 12.6415 19.8746 3.6031 0.9658 0.0000 0.8048
559 29 12.6607 18.0837 5.4207 1.0898 0.0000 0.9323
560 29 10.8433 19.8808 5.4202 0.8437 0.0000 0.9466
561 29 10.8525 18.0792 7.2280 1.0806 0.0000 0.8460
562 29 12.6685 19.8762 7.2303 1.0618 0.0000 0.8715
563 29 12.6439 18.0848 9.0386 0.9896 0.0000 0.8963
564 29 10.8440 19.8820 9.0252 1.0707 0.0000 0.8161
565 29 10.8404 18.0950 10.8432 0.8557 0.0000 0.7717
566 29 12.6574 19.8816 10.8371 1.0457 0.0000 0.8461
567 29 12.6521 18.0724 12.6539 1.1363 0.0000 0.7870
568 29 10.8433 19.8678 12.6689 0.9553 0.0000 0.8519
569 29 10.8477 18.0700 14.4690 1.0437 0.0000 0.7451
570 29 12.6540 19.8831 14.4614 0.9715 0.0000 0.9116
571 29 12.6632 18.0710 16.2567 1.1441 0.0000 0.8395
572 29 10.8509 19.8938 16.2636 1.0290 0.0000 0.9247
573 29 10.8391 18.0779 18.0646 1.1366 0.0000 0.8478
574 29 12.6429 19.8832 18.0700 0.9699 0.0000 0.8491
575 29 12.6529 18.0816 19.8836 0.9822 0.0000 0.9811
576 29 10.8423 19.8877 19.8833 1.0977 0.0000 0.9390
577 29 14.4681 -0.0028 -0.0108 0.9255 0.0000 0.9270
578 29 16.2640 1.8068 0.0032 1.0530 0.0000 0.9654
579 29 16.2613 -0.0082 1.8061 1.0629 0.0000 0.9004
580 29 14.4538 1.7925 1.7908 0.9705 0.0000 0.9175
581 29 14.4621 -0.0066 3.6143 1.0471 0.0000 0.8461
582 29 16.2710 1.8009 3.6215 0.8554 0.0000 0.9428
583 29 16.2672 0.0036 5.4234 0.9372 0.0000 0.7726
584 29 14.4607 1.8147 5.4268 1.0859 0.0000 0.7587
585 29 14.4582 0.0001 7.2349 0.9313 0.0000 0.9409
586 29 16.2632 1.8098 7.2314 0.9072 0.0000 0.7582
587 29 16.2655 0.0017 9.0360 0.8169 0.0000 0.9114
588 29 14.4602 1.8096 9.0297 1.0331 0.0000 0.9782
589 29 14.4603 0.0059 10.8472 0.7678 0.0000 0.9563
590 29 16.2671 1.7985 10.8367 0.8955 0.0000 0.7691
591 29 16.2655 0.0158 12.6590 0.9100 0.0000 0.7873
592 29 14.4576 1.8119 12.6469 1.0231 0.0000 0.8454
593 29 14.4582 -0.0037 14.4444 1.1284 0.0000 0.9731
594 29 16.2652 1.8079 14.4623 0.8463 0.0000 0.9592