ITEM: TIMESTEP
0
ITEM: NUMBER OF ATOMS
864
ITEM: BOX BOUNDS pp pp pp
0.0 24.4680
0.0 24.4680
0.0 24.4680
ITEM: ATOMS id type x y z error strain stiffness
1 79 0.8812 0.5533 0.5132 48.1794 0.0000 36.8297
2 79 1.3261 2.0737 -0.7964 35.4166 0.0000 30.6783
3 79 1.4788 -0.7094 2.0869 48.5434 0.0000 35.8901
4 79 0.1294 2.2813 2.7237 35.8284 0.0000 32.5716
5 79 0.4267 -0.2531 3.7781 36.0233 0.0000 33.4447
6 79 1.7895 2.1923 4.4803 45.7012 0.0000 33.2684
7 79 2.2431 0.0086 6.3956 43.7046 0.0000 35.2159
8 79 -0.4461 1.8909 6.1249 43.6603 0.0000 35.5553
9 79 -0.7710 0.5959 7.7382 40.3861 0.0000 37.9781
10 79 1.9738 1.9331 7.9533 34.8490 0.0000 31.4366
11 79 1.9383 -0.4978 10.3449 48.3070 0.0000 31.0451
12 79 0.1388 1.4783 10.0020 37.7781 0.0000 31.5852
13 79 0.2136 -0.0541 12.4902 46.8158 0.0000 34.8029
14 79 2.7563 2.1030 12.3167 34.4293 0.0000 34.9668
15 79 2.0515 1.0086 14.0771 45.4214 0.0000 32.3087
16 79 -0.0800 2.1377 13.6826 48.2611 0.0000 36.4200
17 79 -0.1401 -0.2397 16.2790 50.6316 0.0000 28.5390
18 79 1.6854 1.9423 16.3467 48.4678 0.0000 33.6832
19 79 1.9830 0.1642 17.8259 43.4329 0.0000 31.0878
20 79 0.1203 2.4336 18.6763 43.5753 0.0000 32.3782
21 79 -0.3174 -0.2550 20.4017 40.2044 0.0000 37.4301
22 79 2.4303 1.7233 20.4829 40.6674 0.0000 32.1409
23 79 2.7222 -0.2389 22.3766 40.8519 0.0000 36.9811
24 79 -0.4686 2.2895 22.9751 34.7002 0.0000 36.6028
25 79 -0.1559 4.4214 0.2335 45.4154 0.0000 32.7010
26 79 1.8285 6.0570 -0.2330 36.9264 0.0000 38.2077
27 79 2.1208 3.8826 2.2063 38.5696 0.0000 28.7204
28 79 -0.1063 6.4104 1.5885 48.4964 0.0000 36.7130
29 79 -0.2864 4.9279 4.1236 41.4251 0.0000 37.3973
30 79 2.2982 5.9469 4.2547 49.9396 0.0000 34.3797
31 79 1.9681 3.8092 6.0372 44.7321 0.0000 34.5297
32 79 -0.4150 6.4292 5.9619 44.0927 0.0000 33.3682
33 79 -0.0806 3.6081 7.7118 45.2674 0.0000 30.8850
34 79 1.9047 6.1715 8.3714 40.9527 0.0000 31.7331
35 79 2.2712 4.0338 10.2629 48.2293 0.0000 31.1528
36 79 0.4555 5.9600 10.1491 47.8803 0.0000 33.7057
37 79 -0.2191 3.3222 11.7325 45.6991 0.0000 30.7095
38 79 1.9009 5.6119 12.3548 35.9460 0.0000 28.5810
39 79 2.5722 4.1457 14.3228 36.3180 0.0000 38.2098
40 79 0.2817 6.5838 14.3406 35.9773 0.0000 28.6569
41 79 -0.1469 3.7297 16.2944 40.9900 0.0000 38.4811
42 79 2.0323 6.4912 16.2389 46.2836 0.0000 38.5493
43 79 2.2593 3.3155 17.9349 36.9212 0.0000 32.8787
44 79 0.4187 5.9493 18.4266 47.0902 0.0000 29.4917
45 79 -0.0857 4.3740 20.4189 36.2813 0.0000 34.3217
46 79 1.3240 6.2010 20.2700 45.8590 0.0000 36.4523
47 79 1.6369 4.0657 22.7972 44.0381 0.0000 33.2220
48 79 -0.0928 5.4584 22.5953 49.7361 0.0000 35.2489
49 79 -0.3270 8.1030 0.3872 47.2753 0.0000 37.8872
50 79 2.2311 9.9425 0.2126 37.7645 0.0000 31.6397
51 79 1.6432 8.2436 2.5584 40.0115 0.0000 32.3124
52 79 0.1310 9.4700 1.4259 35.5051 0.0000 34.5842
53 79 -0.5807 7.5369 4.1165 42.6587 0.0000 33.5751
54 79 2.0805 11.2492 3.5852 50.4125 0.0000 37.0232
55 79 2.0876 8.0234 6.1798 45.3427 0.0000 31.9776
56 79 0.1856 10.5716 5.9708 36.4654 0.0000 37.3648
57 79 0.0966 8.2577 8.3761 50.4582 0.0000 30.3024
58 79 2.5167 9.8875 8.1282 35.6733 0.0000 34.4887
59 79 2.3575 7.8509 10.7049 37.5314 0.0000 29.1675
60 79 -0.1604 10.3098 10.0321 40.3692 0.0000 31.5571
61 79 -0.1096 8.1970 12.7612 43.5697 0.0000 29.2517
62 79 2.3661 10.0632 12.8114 36.3949 0.0000 32.9261
63 79 1.5855 8.4121 14.6373 34.7215 0.0000 34.6583
64 79 -0.0930 10.5584 14.7830 39.7073 0.0000 28.8408
65 79 0.0055 7.8944 16.0542 45.8763 0.0000 32.8591
66 79 1.8319 9.8510 15.9834 49.3839 0.0000 35.6640
67 79 1.7528 8.2191 18.1742 35.7744 0.0000 35.0101
68 79 0.0096 9.7897 18.4073 43.3427 0.0000 31.4255
69 79 -0.4784 8.2804 20.0411 43.7370 0.0000 30.0958
70 79 2.1686 10.5706 20.7553 41.3039 0.0000 34.7073
71 79 2.0439 8.3678 22.2046 40.9972 0.0000 28.9138
72 79 0.3141 10.0607 22.4104 46.0527 0.0000 34.6276
73 79 -0.5162 12.3658 0.0522 47.7238 0.0000 37.9228
74 79 1.5850 14.3454 -0.3003 37.8722 0.0000 34.7228
75 79 2.0828 12.2554 2.1912 40.6617 0.0000 32.8554
76 79 -0.4757 14.1562 1.9130 43.1858 0.0000 36.8759
77 79 -0.0504 12.0182 4.2880 48.2596 0.0000 35.5822
78 79 1.7681 14.0607 4.7194 48.1502 0.0000 28.8382
79 79 1.8686 12.9623 6.1746 37.1815 0.0000 31.9095
80 79 0.4836 14.1164 6.2406 44.9077 0.0000 30.8964
81 79 -0.1420 11.8999 8.0798 42.0268 0.0000 31.9166
82 79 1.6475 13.9657 8.6734 40.6783 0.0000 32.6264
83 79 2.1073 12.1794 9.7615 38.5921 0.0000 37.5421
84 79 -0.6879 14.7605 10.5963 40.8043 0.0000 30.0177
85 79 -0.0934 12.2273 12.1185 42.8987 0.0000 33.6521
86 79 2.4071 14.4324 12.0933 47.1854 0.0000 37.7866
87 79 2.4078 11.8176 14.6768 49.6395 0.0000 32.6856
88 79 0.1010 14.1493 14.2938 45.6957 0.0000 36.3852
89 79 -0.9573 11.9046 16.8113 45.0240 0.0000 33.0761
90 79 1.5839 13.9770 16.7534 39.6960 0.0000 31.9538
91 79 1.6959 12.0797 18.4888 34.2976 0.0000 36.0553
92 79 -0.3292 14.3103 18.2821 47.9908 0.0000 34.3892
93 79 -0.6354 12.1710 20.8362 49.7580 0.0000 32.8585
94 79 1.9689 14.2549 20.3905 41.6432 0.0000 37.6989
95 79 2.6146 12.3104 22.4202 35.4833 0.0000 34.7818
96 79 0.4993 14.5087 22.5813 49.5394 0.0000 37.2051
97 79 0.1668 16.7613 0.0729 48.0027 0.0000 33.9813
98 79 1.5300 17.9968 -0.0841 36.2792 0.0000 32.9227
99 79 1.7951 15.9856 1.8678 36.6111 0.0000 30.9211
100 79 0.2496 18.8746 1.7959 40.4685 0.0000 35.5925
101 79 -0.6025 16.1446 4.6974 35.5862 0.0000 37.6970
102 79 1.6584 18.4212 4.0845 41.1643 0.0000 29.6651
103 79 2.6890 16.2844 5.7819 36.8916 0.0000 33.6837
104 79 0.7878 18.5115 6.1111 41.1506 0.0000 31.1284
105 79 0.6003 16.5360 8.3865 42.4153 0.0000 29.1885
106 79 1.4380 17.4853 8.1435 37.0959 0.0000 28.5974
107 79 1.7280 16.6641 9.9500 47.6264 0.0000 35.2054
108 79 -0.3143 18.3008 10.2705 46.1799 0.0000 35.3412
109 79 -0.4197 15.8923 12.6726 46.9536 0.0000 38.3290
110 79 2.0031 18.6054 12.6857 34.6494 0.0000 32.7485
111 79 1.6908 16.8590 14.3803 48.9052 0.0000 36.4076
112 79 0.2458 18.1283 14.5755 38.3785 0.0000 36.3299
113 79 -0.6122 16.0808 16.0838 49.0543 0.0000 29.0262
114 79 2.0219 18.5595 16.3436 37.5804 0.0000 28.8899
115 79 1.4693 16.5011 18.2609 51.1617 0.0000 37.2554
116 79 -0.3208 18.0281 17.8246 38.9735 0.0000 31.4536
117 79 0.3580 16.6271 19.7542 49.2031 0.0000 35.9917
118 79 1.8992 18.6458 20.4733 36.8221 0.0000 30.8054
119 79 2.5409 16.5617 22.1476 36.7949 0.0000 33.7841
120 79 0.1731 18.4635 21.9764 43.5104 0.0000 28.5141
121 79 0.1872 21.0216 -0.2945 34.9220 0.0000 32.3234
122 79 2.1116 22.0729 0.9061 38.1215 0.0000 32.5630
123 79 2.4965 20.3149 2.2327 42.4655 0.0000 35.6938
124 79 -0.0471 21.9129 1.8321 37.5119 0.0000 29.4033
125 79 -0.3303 20.4193 3.9110 49.7858 0.0000 34.0762
126 79 1.6578 22.2096 4.6871 43.8574 0.0000 37.2428
127 79 2.0683 20.1065 5.9463 34.2432 0.0000 31.4441
128 79 -0.2490 22.4104 6.3321 43.4882 0.0000 33.4028
129 79 0.1306 20.1863 8.0741 45.1165 0.0000 29.5430
130 79 2.3106 22.5183 8.0570 44.0957 0.0000 29.2432
131 79 1.8234 20.5031 10.4907 37.9946 0.0000 31.3088
132 79 -0.5191 21.9363 10.3807 44.1681 0.0000 34.8768
133 79 -0.4818 20.6576 11.6062 37.3630 0.0000 34.9809
134 79 1.6045 23.2110 11.9850 50.9284 0.0000 35.2307
135 79 2.6236 20.8348 13.7821 44.2697 0.0000 31.6317
136 79 -0.1605 22.1885 14.2076 42.7267 0.0000 36.1497
137 79 -0.1311 20.1667 16.0212 45.4286 0.0000 36.4708
138 79 2.1428 22.5365 15.9023 44.8789 0.0000 36.6143
139 79 2.6190 19.7324 17.7803 43.4975 0.0000 35.7645
140 79 0.2643 22.3023 17.7845 38.4308 0.0000 31.8862
141 79 0.1336 20.3936 20.4062 35.1581 0.0000 36.0159
142 79 1.8128 22.8751 20.2626 43.2667 0.0000 38.2198
143 79 2.2884 20.3622 22.7721 42.2367 0.0000 35.8550
144 79 0.1984 22.2198 22.5897 46.1681 0.0000 33.3014
145 79 3.9088 -0.2780 -0.3597 36.3378 0.0000 36.1367
146 79 6.3471 1.8315 0.4151 36.4971 0.0000 32.0740
147 79 5.9746 0.0182 1.2749 37.1026 0.0000 33.5594
148 79 4.1267 1.7487 1.4364 35.1183 0.0000 35.5387
149 79 3.8827 0.6392 3.3238 35.4406 0.0000 33.8161
150 79 6.5538 2.2620 4.4181 42.2821 0.0000 35.5459
151 79 5.6216 0.0212 6.3588 45.8887 0.0000 28.6803
152 79 4.0431 1.7852 5.8894 47.2341 0.0000 29.5273
153 79 4.6664 0.2161 7.9006 38.8160 0.0000 38.3358
154 79 6.6576 2.0708 8.6617 38.4626 0.0000 38.1250
155 79 6.3067 0.5394 10.0006 38.9954 0.0000 30.3968
156 79 4.3328 2.4524 10.3491 48.3945 0.0000 36.8732
157 79 4.1577 0.3410 12.0936 37.2196 0.0000 38.5551
158 79 6.1966 1.6146 11.9481 46.4141 0.0000 35.8770
159 79 6.1618 -0.8762 13.8458 42.6052 0.0000 33.9721
160 79 4.2616 2.3872 14.3616 39.1550 0.0000 31.9182
161 79 4.2380 0.2491 16.0651 42.0237 0.0000 32.1220
162 79 5.6893 2.1394 16.0403 37.0209 0.0000 37.0214
163 79 6.0651 -0.0713 18.1983 50.3195 0.0000 33.3608
164 79 3.5955 1.7728 18.4736 42.3508 0.0000 33.5005
165 79 3.4718 0.9064 20.6683 45.4670 0.0000 37.4166
166 79 6.3224 2.0577 20.1001 37.9684 0.0000 32.2670
167 79 6.1804 -0.2068 22.8694 44.8025 0.0000 29.8758
168 79 4.4010 1.8565 21.9934 39.7935 0.0000 32.1619
169 79 4.3351 4.6603 0.4133 46.0205 0.0000 34.8728
170 79 6.1307 5.5718 -0.2875 38.2278 0.0000 34.4430
171 79 6.5682 4.3215 1.7793 45.8676 0.0000 30.9798
172 79 3.9207 6.1954 2.2509 44.5723 0.0000 33.5962
173 79 3.6171 4.1737 4.1714 34.7055 0.0000 38.1885
174 79 6.1235 6.7110 4.0773 37.5184 0.0000 38.5222
175 79 6.1499 4.0718 5.7536 39.1013 0.0000 35.1996
176 79 3.9990 6.1683 6.0726 34.2873 0.0000 35.7159
177 79 3.5626 3.5304 8.1422 50.2545 0.0000 29.5802
178 79 6.0313 6.2969 8.9719 47.8808 0.0000 30.1015
179 79 6.2277 4.5520 10.5424 47.5034 0.0000 32.8435
180 79 4.2059 6.1996 9.8691 47.5550 0.0000 31.1465
181 79 4.1145 4.4773 12.3064 40.8801 0.0000 36.4223
182 79 6.1285 6.3495 12.2770 34.8291 0.0000 34.5501
183 79 6.1595 3.6787 14.8275 34.4413 0.0000 29.8255
184 79 4.1686 6.7327 13.7805 44.1163 0.0000 28.9479
185 79 4.0799 3.8908 16.3024 49.7327 0.0000 37.6315
186 79 6.1401 6.6941 16.3531 49.7940 0.0000 31.5032
187 79 5.7306 4.0657 18.6370 47.4106 0.0000 35.8767
188 79 4.0440 5.8389 18.8423 35.1180 0.0000 34.8752
189 79 4.6060 3.9786 20.1236 51.1657 0.0000 32.8855
190 79 6.1918 5.9198 20.2114 40.5459 0.0000 29.6630
191 79 5.8310 3.2910 22.3367 41.0431 0.0000 34.2955
192 79 4.3876 6.1905 21.9422 48.2893 0.0000 30.8496
193 79 3.9136 7.8757 -0.0480 38.0051 0.0000 38.0232
194 79 6.2578 10.3901 -0.5137 47.4185 0.0000 38.3378
195 79 6.1623 8.3064 2.7174 39.2944 0.0000 35.9085
196 79 3.4203 9.7427 1.7510 34.6924 0.0000 38.0879
197 79 3.9923 8.9148 4.3853 49.4579 0.0000 30.4173
198 79 6.0880 9.8938 3.5870 48.6134 0.0000 30.7925
199 79 6.7745 7.1976 5.9788 40.4555 0.0000 35.9823
200 79 4.4252 9.7579 6.0492 37.4490 0.0000 30.5109
201 79 4.3680 8.8591 8.0403 50.9963 0.0000 30.6843
202 79 6.5381 10.5272 8.3981 50.9118 0.0000 33.5816
203 79 5.9280 8.4074 9.5338 45.6391 0.0000 34.4294
204 79 3.6034 10.3675 10.4301 35.1248 0.0000 34.6145
205 79 3.7989 8.2471 13.0045 36.4387 0.0000 30.2030
206 79 5.4634 10.2328 12.8602 36.2199 0.0000 35.2136
207 79 6.0687 8.6806 14.4958 39.0119 0.0000 37.3803
208 79 3.9725 10.7479 13.9117 45.2640 0.0000 36.3613
209 79 4.0043 7.9394 15.9811 49.2165 0.0000 31.2799
210 79 6.1701 10.3769 15.4488 41.0163 0.0000 29.1359
211 79 6.1510 7.9158 18.1322 47.0822 0.0000 37.6303
212 79 3.8517 10.3088 18.6461 47.5487 0.0000 36.6508
213 79 4.3175 8.3535 20.1572 36.4877 0.0000 33.7149
214 79 6.4391 10.0621 20.7341 41.7655 0.0000 30.4835
215 79 6.2426 8.1279 22.7649 41.5381 0.0000 30.7300
216 79 4.2777 8.8820 23.0233 51.1795 0.0000 35.5698
217 79 3.7191 12.3391 -0.0570 43.1792 0.0000 32.2798
218 79 5.9115 14.3404 -0.0616 35.0816 0.0000 32.2321
219 79 6.4323 12.3615 1.8885 40.2943 0.0000 31.9858
220 79 3.8865 13.5037 1.3932 41.6180 0.0000 31.0420
221 79 3.6117 11.9476 4.7185 51.0536 0.0000 28.5262
222 79 6.3554 14.0378 3.3461 35.2664 0.0000 31.0749
223 79 6.2128 12.3346 6.0172 34.1950 0.0000 36.0817
224 79 4.5756 14.1811 5.7436 36.6557 0.0000 28.5388
225 79 4.0367 12.4233 8.7578 42.3787 0.0000 32.2400
226 79 6.1725 14.8028 8.6150 40.9813 0.0000 35.7748
227 79 5.6171 11.9142 9.7376 38.0512 0.0000 33.7682
228 79 3.9932 14.5305 10.2988 34.6135 0.0000 35.5289
229 79 3.8636 12.4158 11.8393 38.9794 0.0000 30.3886
230 79 6.6653 14.0607 12.5794 47.2759 0.0000 36.9079
231 79 6.2334 12.0168 14.4459 47.8025 0.0000 34.7307
232 79 4.7461 13.8051 14.5867 50.9235 0.0000 32.5652
233 79 3.4300 12.5794 15.7554 40.8816 0.0000 36.8784
234 79 6.3424 14.2494 16.5695 42.8324 0.0000 31.9814
235 79 5.8471 12.6085 18.7234 39.5786 0.0000 35.5540
236 79 5.0843 13.5921 17.5895 34.5385 0.0000 37.9203
237 79 4.4758 12.5208 20.8606 36.0930 0.0000 32.8966
238 79 5.4334 14.2757 19.5001 35.2711 0.0000 37.4950
239 79 6.1568 12.7764 22.2342 46.5645 0.0000 34.4075
240 79 4.5338 13.7869 22.6583 37.9331 0.0000 29.7618
241 79 4.9337 16.4753 -0.0410 48.8840 0.0000 34.0184
242 79 6.1643 18.3499 0.1443 43.8932 0.0000 30.8219
243 79 6.5071 16.6864 1.8852 40.3648 0.0000 28.6876
244 79 4.0564 18.1557 2.1030 48.6881 0.0000 37.5425
245 79 4.0982 15.8375 4.2569 42.5293 0.0000 33.4786
246 79 6.2881 17.1135 4.3251 50.9652 0.0000 37.7548
247 79 6.7195 15.8574 5.2219 40.7557 0.0000 32.2965
248 79 4.6852 17.9822 6.4214 45.6343 0.0000 29.1783
249 79 3.8291 16.2833 7.7615 36.2239 0.0000 33.5840
250 79 6.0051 18.4084 8.3714 47.6398 0.0000 31.2636
251 79 6.2409 16.8700 10.2792 49.2293 0.0000 33.0740
252 79 4.3221 18.3798 10.5315 39.5402 0.0000 34.6526
253 79 4.1266 16.0081 12.3516 39.7377 0.0000 32.1590
254 79 6.0950 18.6399 12.2201 48.2209 0.0000 34.8215
255 79 6.3305 16.4355 14.5816 44.4163 0.0000 36.6835
256 79 4.3236 18.5675 14.4042 38.6040 0.0000 30.0509
257 79 3.5932 16.0797 16.3923 35.2213 0.0000 30.6544
258 79 6.4018 18.0949 16.3547 46.4654 0.0000 30.3172
259 79 6.1654 16.1886 17.9962 42.5640 0.0000 29.3479
260 79 3.9898 18.4821 18.7689 49.2825 0.0000 30.8872
261 79 3.6555 16.1875 20.5723 50.2614 0.0000 37.1051
262 79 5.8339 18.1274 19.9066 41.3390 0.0000 32.4537
263 79 5.9662 16.0956 22.4120 51.0887 0.0000 38.3918
264 79 4.0436 18.1450 22.2059 40.2930 0.0000 34.3655
265 79 4.3949 19.9886 -0.4516 44.2277 0.0000 33.1131
266 79 6.6975 21.9983 -0.2382 45.3937 0.0000 34.6683
267 79 6.5022 20.8024 2.4735 38.3334 0.0000 29.2242
268 79 3.5408 22.2534 1.8529 39.0703 0.0000 35.0541
269 79 3.9266 20.2916 4.0482 38.6663 0.0000 30.7183
270 79 6.0335 22.2788 4.2085 34.9364 0.0000 30.3947
271 79 5.7241 20.2771 6.1086 50.0232 0.0000 31.1189
272 79 3.7061 21.8254 6.6769 50.9436 0.0000 36.1709
273 79 4.1027 20.4214 8.0821 35.4365 0.0000 33.5852
274 79 6.1261 23.1227 8.3353 46.7558 0.0000 30.6195
275 79 6.2464 20.8484 10.3990 42.7627 0.0000 29.8511
276 79 3.9809 22.5220 10.0743 43.2036 0.0000 38.2118
277 79 4.1883 20.2728 12.2628 41.5893 0.0000 29.0084
278 79 5.9830 22.6361 11.7871 36.7215 0.0000 31.0153
279 79 5.9824 20.3618 14.0188 49.9132 0.0000 35.1387
280 79 4.1153 22.1840 14.5839 46.7409 0.0000 31.6219
281 79 3.0534 20.2613 16.7741 36.2909 0.0000 34.4907
282 79 5.5313 23.0023 16.3769 47.9268 0.0000 37.9811
283 79 6.0494 20.5693 18.0422 42.7610 0.0000 31.1765
284 79 4.6743 23.1537 18.2731 40.9601 0.0000 30.1611
285 79 3.6335 20.2905 20.9580 46.8155 0.0000 33.1866
286 79 6.3869 22.9071 19.8598 45.7614 0.0000 31.8553
287 79 5.3509 20.1511 22.5479 48.1888 0.0000 37.0096
288 79 4.0054 22.9495 22.1698 41.2169 0.0000 36.0072
289 79 8.1957 -0.1635 -0.2490 48.4004 0.0000 32.5974
290 79 10.2885 1.5909 -0.5437 43.2341 0.0000 31.7008
291 79 9.8131 -0.6429 2.4785 38.7362 0.0000 36.3647
292 79 8.2056 2.0339 2.1525 39.3689 0.0000 33.4105
293 79 7.9382 -0.1087 3.9537 45.8569 0.0000 31.3934
294 79 10.1509 2.4291 4.6248 47.4209 0.0000 36.9542
295 79 9.9808 0.3493 6.4067 35.6810 0.0000 32.8428
296 79 8.1906 1.5653 5.9384 34.3500 0.0000 33.5523
297 79 7.8985 0.6059 8.1813 44.9484 0.0000 30.0176
298 79 10.5258 1.9092 8.9338 35.0143 0.0000 30.6859
299 79 10.5778 -0.2405 10.6370 47.8060 0.0000 29.5457
300 79 8.2725 1.5610 9.9253 44.4485 0.0000 33.8083
301 79 8.4468 -0.1371 12.0462 42.1338 0.0000 38.1920
302 79 10.4171 2.4797 11.8836 47.9919 0.0000 31.1632
303 79 10.0636 0.0542 14.2880 46.0934 0.0000 36.7769
304 79 8.7424 1.4513 14.0935 37.0435 0.0000 37.7750
305 79 8.2448 -0.5063 16.6228 45.4850 0.0000 31.6376
306 79 10.0238 1.7024 16.8571 42.6575 0.0000 31.1172
307 79 9.9923 0.5465 18.7993 50.5589 0.0000 33.9660
308 79 7.3499 2.4666 18.2930 49.7156 0.0000 35.2782
309 79 7.8357 0.3925 20.3223 46.6396 0.0000 33.4175
310 79 9.9732 2.3307 20.4269 40.8398 0.0000 37.7461
311 79 10.8680 0.1670 22.3704 44.9060 0.0000 38.5104
312 79 8.2553 1.9750 22.9190 37.9055 0.0000 30.5286
313 79 7.9110 4.0420 0.3892 40.3978 0.0000 32.0817
314 79 10.1185 6.1203 0.3490 37.8221 0.0000 29.5080
315 79 10.6478 3.7772 1.8593 43.9286 0.0000 33.8692
316 79 7.7231 5.9066 1.9916 35.8445 0.0000 29.4483
317 79 8.2406 4.4299 3.5377 44.5291 0.0000 33.0247
318 79 10.4209 6.3740 4.0580 37.9257 0.0000 35.5111
319 79 9.8535 3.9123 6.0694 45.0937 0.0000 33.7919
320 79 7.9988 6.4381 5.9299 47.8966 0.0000 37.8738
321 79 7.8925 4.3988 8.3729 36.6510 0.0000 32.5727
322 79 10.1308 6.1510 8.1815 37.1802 0.0000 35.7996
323 79 10.4241 3.9288 10.3513 48.7223 0.0000 33.2058
324 79 8.1101 5.9978 10.4312 43.2876 0.0000 29.3407
325 79 8.1272 3.7331 12.7656 37.0510 0.0000 32.2065
326 79 9.9926 5.8302 12.4368 48.5884 0.0000 31.2387
327 79 10.3386 4.1737 14.1778 36.5649 0.0000 35.5131
328 79 8.0139 5.7075 14.4937 35.4550 0.0000 36.8014
329 79 8.6187 4.0093 15.7745 42.2649 0.0000 30.8355
330 79 10.1759 6.3322 16.6198 41.6868 0.0000 35.5632
331 79 10.3110 4.3874 18.4421 48.3960 0.0000 35.7994
332 79 8.1235 5.8131 18.4487 35.3336 0.0000 29.9097
333 79 8.5039 4.4324 20.3815 39.8742 0.0000 35.3854
334 79 10.8899 6.3471 20.7189 40.5758 0.0000 32.5854
335 79 10.5632 4.1066 22.8850 50.4581 0.0000 35.5997
336 79 7.4457 5.8683 22.7201 47.9375 0.0000 36.8854
337 79 8.6095 8.5840 -0.4288 43.0369 0.0000 32.7570
338 79 9.3241 10.2885 0.3777 49.3589 0.0000 31.7594
339 79 10.1838 8.7587 2.0375 44.0690 0.0000 32.8492
340 79 7.7749 9.8744 1.8314 44.1367 0.0000 30.4436
341 79 8.6459 8.3709 3.8870 47.1069 0.0000 33.9260
342 79 10.2253 10.2587 3.8999 42.7559 0.0000 30.6490
343 79 10.2702 7.8852 5.7583 38.3921 0.0000 35.4446
344 79 7.9946 9.3912 6.0043 41.9217 0.0000 33.8886
345 79 8.6085 8.1536 7.8553 40.2062 0.0000 28.5968
346 79 10.3590 9.8118 8.0797 37.8927 0.0000 36.9043
347 79 10.3038 8.2231 10.7606 34.5461 0.0000 33.7751
348 79 8.0100 10.3028 10.5588 36.2307 0.0000 35.0707
349 79 8.2846 8.1966 11.7273 48.0185 0.0000 36.8731
350 79 9.8420 9.9743 12.0286 49.0181 0.0000 36.5752
351 79 9.7543 8.7064 14.3909 40.4491 0.0000 32.3948
352 79 8.8184 10.7161 13.9684 36.8563 0.0000 38.4417
353 79 7.8473 8.1351 16.6191 41.2148 0.0000 28.7031
354 79 9.9865 9.4928 16.7476 39.9927 0.0000 29.9342
355 79 10.1668 8.3442 18.5452 39.0942 0.0000 36.4294
356 79 8.0228 9.7088 18.0412 38.7028 0.0000 32.8995
357 79 7.9618 8.4268 19.4281 37.8716 0.0000 38.4114
358 79 10.2118 9.9056 20.1953 34.8980 0.0000 32.3555
359 79 11.1738 8.4472 21.7346 43.6066 0.0000 35.0112
360 79 8.2207 10.6924 22.0357 41.5723 0.0000 36.7991
361 79 7.7129 12.2844 0.5623 42.0650 0.0000 35.9080
362 79 10.0436 14.0163 -0.1689 36.8665 0.0000 36.5488
363 79 9.7184 12.9360 2.0265 45.7431 0.0000 36.7712
364 79 8.1360 13.9869 2.1370 41.8619 0.0000 34.2316
365 79 8.6011 12.3501 4.3018 44.0414 0.0000 34.7883
366 79 10.2950 14.7547 3.8363 44.1797 0.0000 32.2391
367 79 10.6134 11.9225 5.6367 39.2561 0.0000 29.8386
368 79 8.6048 14.2322 6.5498 46.0024 0.0000 29.5546
369 79 7.9349 12.1678 7.8077 47.6296 0.0000 30.8938
370 79 9.9799 14.1548 7.3706 40.5755 0.0000 36.5473
371 79 10.0845 12.2323 10.3018 44.6939 0.0000 31.3241
372 79 7.5238 14.1966 10.0886 44.1542 0.0000 35.9209
373 79 8.2893 12.0453 11.9915 39.2518 0.0000 32.2023
374 79 10.2060 13.9968 12.5077 41.7305 0.0000 29.1082
375 79 9.5533 12.2370 14.9075 48.6605 0.0000 28.7359
376 79 8.8208 13.9424 14.5994 37.4001 0.0000 29.2398
377 79 7.7557 12.4584 16.1487 44.7475 0.0000 28.9700
378 79 10.6169 14.1733 16.4836 35.8174 0.0000 29.8573
379 79 9.9700 11.9729 18.0218 35.4526 0.0000 34.6244
380 79 8.1501 13.9908 18.6229 51.1115 0.0000 32.9681
381 79 7.8500 12.0452 20.2446 39.9984 0.0000 33.1192
382 79 9.5566 15.3193 19.4759 45.2766 0.0000 32.8868
383 79 10.7990 12.5136 22.0681 46.1474 0.0000 36.9765
384 79 8.3736 14.8991 22.5244 42.1603 0.0000 36.7437
385 79 8.4836 16.7393 0.2777 36.4804 0.0000 33.9656
386 79 10.1125 18.4997 -0.1715 35.3953 0.0000 34.3899
387 79 10.0560 16.0855 2.0310 39.6444 0.0000 34.1859
388 79 7.8040 18.6339 2.2136 51.1907 0.0000 31.2301
389 79 8.5792 15.2990 3.5318 37.2711 0.0000 35.8955
390 79 10.5546 17.6770 4.2417 45.3483 0.0000 33.7811
391 79 10.4000 15.9066 6.2942 39.4296 0.0000 29.9454
392 79 8.4955 18.6059 6.3097 51.0727 0.0000 36.0983
393 79 8.6324 16.4269 7.8620 46.6528 0.0000 32.3426
394 79 10.5267 18.0465 7.5723 49.7278 0.0000 38.0141
395 79 10.8507 16.3390 10.0687 34.4882 0.0000 36.6966
396 79 8.5650 17.9083 9.7751 38.0539 0.0000 35.2763
397 79 7.8242 16.7827 12.7043 50.9467 0.0000 34.8924
398 79 10.5042 17.6861 12.0643 36.2472 0.0000 37.7654
399 79 9.7177 16.3972 13.6523 36.4035 0.0000 33.1888
400 79 7.5170 18.6892 14.1114 47.2690 0.0000 37.8009
401 79 8.2971 16.5139 16.2417 38.5717 0.0000 34.0199
402 79 9.9284 18.5060 16.1342 40.6975 0.0000 30.5496
403 79 10.3360 16.5491 17.7683 36.6448 0.0000 35.5534
404 79 8.9492 17.9662 18.6860 38.0871 0.0000 33.7701
405 79 8.2450 16.1200 20.3475 51.1316 0.0000 37.0502
406 79 10.3583 18.8553 20.3767 41.9453 0.0000 38.4683
407 79 9.9912 16.6271 23.0631 35.1792 0.0000 32.5989
408 79 8.6639 18.4465 22.1187 34.6546 0.0000 38.3683
409 79 7.8317 20.1140 -0.1026 43.0648 0.0000 30.1967
410 79 10.1307 22.4422 0.1405 50.4914 0.0000 35.4534
411 79 10.6634 20.9215 1.8367 39.5378 0.0000 35.7663
412 79 8.3684 22.2201 2.1448 48.7262 0.0000 36.8007
413 79 7.8942 20.2228 4.6088 42.3692 0.0000 32.4889
414 79 10.2060 22.8677 3.0873 49.4582 0.0000 28.7842
415 79 10.6213 20.5125 5.9659 47.0882 0.0000 35.4894
416 79 7.7432 22.1156 5.9992 38.2468 0.0000 28.5057
417 79 8.3596 20.2905 8.1252 42.3570 0.0000 31.4537
418 79 10.6919 21.8408 7.5346 42.7347 0.0000 36.2694
419 79 10.7595 20.7889 10.4167 35.5427 0.0000 38.3949
420 79 8.1064 21.7708 10.7989 34.3073 0.0000 37.6013
421 79 8.4219 20.6778 12.9219 45.8816 0.0000 29.5125
422 79 9.7918 22.2077 12.6114 43.0034 0.0000 30.1604
423 79 9.8084 20.8072 13.7525 34.5311 0.0000 35.2713
424 79 7.6842 22.8576 14.3068 34.7421 0.0000 38.5041
425 79 8.3886 20.0289 16.1192 39.2249 0.0000 30.9805
426 79 10.5354 21.9540 16.3971 38.2825 0.0000 33.3711
427 79 9.8851 20.7057 18.4633 49.7741 0.0000 32.8164
428 79 8.0905 22.1803 17.3190 37.3037 0.0000 29.9153
429 79 7.8002 20.4505 20.3564 34.4101 0.0000 33.4511
430 79 10.0389 22.6555 20.2730 40.8125 0.0000 32.2911
431 79 10.5715 20.5622 22.3892 38.2600 0.0000 34.2987
432 79 7.7250 22.2745 22.6965 46.1031 0.0000 36.3100
433 79 11.8919 0.0029 -0.4793 47.6411 0.0000 30.0579
434 79 14.3066 2.1184 -0.2802 47.4196 0.0000 33.0838
435 79 14.3449 -0.3039 1.7504 44.2589 0.0000 33.3576
436 79 13.2213 2.2624 1.9353 42.8893 0.0000 29.4751
437 79 11.8349 0.6808 3.6962 39.3480 0.0000 33.0186
438 79 13.9429 1.7846 4.4584 44.3116 0.0000 34.5458
439 79 14.5132 0.2495 5.9781 47.8113 0.0000 36.4910
440 79 12.4724 2.8340 6.1097 40.9649 0.0000 32.7356
441 79 12.5380 -0.0475 8.5741 37.2300 0.0000 33.9845
442 79 13.5738 2.0817 7.9104 40.2784 0.0000 34.8776
443 79 13.3673 -0.1756 10.9000 48.9186 0.0000 35.1435
444 79 11.7474 2.1817 10.4608 38.7876 0.0000 36.7626
445 79 12.4299 -0.5762 12.3444 36.6402 0.0000 36.2758
446 79 15.3311 1.7019 12.9050 48.1981 0.0000 35.2931
447 79 13.9683 0.0893 14.2759 41.8733 0.0000 38.0150
448 79 12.1133 2.3480 14.2936 36.5988 0.0000 36.3472
449 79 12.6846 0.1061 16.1220 51.0122 0.0000 35.0117
450 79 13.9086 2.1278 15.8855 38.4467 0.0000 35.9363
451 79 14.3769 0.0629 18.4345 50.9445 0.0000 36.0187
452 79 12.5903 2.2878 18.2391 44.2739 0.0000 32.2202
453 79 12.0045 0.1769 20.3105 34.9157 0.0000 31.3650
454 79 14.1084 1.4870 20.1175 46.7752 0.0000 33.0258
455 79 14.2357 -0.4290 22.0159 46.5863 0.0000 36.4963
456 79 12.6247 1.8564 22.3030 49.6480 0.0000 29.7270
457 79 12.4978 4.3001 0.2809 43.8247 0.0000 35.7046
458 79 14.4170 5.8054 0.1552 45.4442 0.0000 34.1153
459 79 14.5550 3.7257 2.2330 43.7583 0.0000 34.7241
460 79 11.6569 6.1186 1.9717 44.6596 0.0000 30.1047
461 79 12.6877 3.8277 3.8890 44.4505 0.0000 28.7791
462 79 14.4066 6.0443 3.4972 38.5507 0.0000 32.4821
463 79 13.4411 4.0912 6.0725 38.5372 0.0000 30.6040
464 79 11.5561 5.5155 6.6027 44.4197 0.0000 34.5383
465 79 12.2180 3.8175 7.9197 49.0041 0.0000 37.4649
466 79 14.3766 6.3147 7.5329 35.2920 0.0000 31.7009
467 79 13.8037 4.7512 10.6986 41.0616 0.0000 34.3047
468 79 12.1009 5.8451 9.9158 44.3464 0.0000 30.1220
469 79 12.5996 4.5241 12.5036 35.2547 0.0000 29.4671
470 79 14.7266 6.0269 12.2038 36.9759 0.0000 31.9959
471 79 14.2784 3.6380 14.5013 47.7809 0.0000 34.8413
472 79 12.2071 5.5317 13.9248 35.5820 0.0000 31.9821
473 79 12.1855 4.0636 16.5463 44.5057 0.0000 29.9162
474 79 14.4480 6.6594 16.4467 35.2406 0.0000 29.5473
475 79 13.9703 3.6060 18.4654 41.1845 0.0000 31.0301
476 79 11.9963 5.5411 17.8926 41.3309 0.0000 36.9064
477 79 12.2581 4.1220 20.0946 44.6896 0.0000 37.8569
478 79 14.2785 5.8592 20.2339 45.1631 0.0000 34.7776
479 79 14.1325 3.9795 22.7217 46.2539 0.0000 35.8645
480 79 12.5745 6.2370 22.9688 36.8006 0.0000 36.8454
481 79 12.6412 8.0482 0.5400 34.7215 0.0000 30.5716
482 79 15.3674 10.4457 -0.0440 43.9883 0.0000 35.7566
483 79 13.6793 7.8842 2.1500 36.0518 0.0000 38.4894
484 79 11.8863 10.5890 2.7793 42.3934 0.0000 38.0858
485 79 12.0487 7.5962 3.9553 34.7676 0.0000 33.8677
486 79 14.0868 10.0356 4.4276 46.2645 0.0000 35.1437
487 79 14.1665 7.8570 6.5055 50.4055 0.0000 31.4401
488 79 12.0582 9.6798 5.8538 42.3292 0.0000 37.9285
489 79 11.9782 8.7593 7.5655 39.5087 0.0000 30.9290
490 79 13.9861 10.3393 7.6713 49.1072 0.0000 37.0156
491 79 13.9720 8.3050 10.6715 34.3237 0.0000 33.0016
492 79 11.7706 10.3115 9.9750 40.1146 0.0000 37.2962
493 79 12.1798 7.9945 12.3596 37.1364 0.0000 38.0472
494 79 14.4365 9.7232 12.3033 49.5762 0.0000 37.3205
495 79 14.1753 8.1497 14.7668 46.6275 0.0000 30.0702
496 79 12.0339 10.1556 14.3130 36.9975 0.0000 37.1820
497 79 12.4129 7.8636 16.4496 44.5067 0.0000 35.0142
498 79 14.9545 10.6675 16.5316 36.8390 0.0000 31.7084
499 79 14.8021 7.9691 18.5503 51.0953 0.0000 34.5880
500 79 11.6462 9.7544 18.1697 50.3304 0.0000 36.5509
501 79 12.3058 8.2183 19.8405 46.1233 0.0000 30.2389
502 79 14.3870 9.8160 20.6852 38.5707 0.0000 35.5389
503 79 14.4545 8.2427 22.5018 47.1627 0.0000 37.3729
504 79 12.0294 10.2471 22.2514 34.8028 0.0000 31.2172
505 79 12.5095 12.5282 -0.0409 50.0288 0.0000 29.3259
506 79 14.1397 14.4556 0.2876 41.2996 0.0000 34.0379
507 79 14.5668 12.0422 2.2260 39.1786 0.0000 32.7669
508 79 11.8147 14.5926 2.2305 44.8716 0.0000 30.8844
509 79 13.0034 12.1730 4.1025 47.9972 0.0000 33.1539
510 79 14.4808 13.6938 3.8611 47.5593 0.0000 37.4892
511 79 14.2998 11.8146 5.8512 43.6175 0.0000 32.6908
512 79 12.1881 14.3191 5.8793 39.3500 0.0000 31.3948
513 79 12.7430 12.7020 8.1777 50.7745 0.0000 35.4266
514 79 14.5940 14.2945 7.9973 51.2209 0.0000 31.8870
515 79 14.4589 12.0639 10.0708 50.6759 0.0000 30.0499
516 79 12.1821 14.3488 10.4085 35.5096 0.0000 35.2061
517 79 13.2068 12.1526 12.3605 41.3133 0.0000 32.4624
518 79 14.0312 14.6414 11.3073 45.4757 0.0000 31.9286
519 79 14.1373 12.2419 14.5616 39.5424 0.0000 32.3309
520 79 12.2843 14.2821 14.5211 45.7632 0.0000 32.7974
521 79 11.6549 11.7542 16.1877 37.4129 0.0000 34.6116
522 79 15.4490 14.1207 16.2798 46.2533 0.0000 31.7658
523 79 14.4369 12.2846 18.4171 40.2675 0.0000 32.5668
524 79 12.3010 14.1445 18.3380 42.0991 0.0000 34.0768
525 79 12.0772 11.7127 21.1038 44.8432 0.0000 33.3050
526 79 14.4777 14.1390 20.0806 47.9951 0.0000 34.3205
527 79 14.4702 12.4461 22.0841 46.9091 0.0000 34.0480
528 79 12.0241 13.9018 22.6706 46.2745 0.0000 31.2064
529 79 12.2387 16.2579 -0.2015 41.0068 0.0000 37.4566
530 79 14.4520 17.7375 -0.4216 50.6214 0.0000 34.6978
531 79 14.1374 16.2304 2.0030 38.9761 0.0000 33.2527
532 79 11.9976 18.2685 2.0343 36.7367 0.0000 33.0201
533 79 12.2041 16.3339 4.0339 38.0653 0.0000 29.0013
534 79 14.0415 18.8381 4.5629 39.6758 0.0000 36.7318
535 79 14.0999 16.2363 5.4499 36.9715 0.0000 30.8891
536 79 12.1785 18.3653 6.1806 34.4934 0.0000 36.2701
537 79 12.4458 16.3625 8.1103 41.1852 0.0000 36.7909
538 79 14.5474 18.2266 8.3380 44.4060 0.0000 35.0800
539 79 13.8953 16.0887 10.3631 38.8693 0.0000 34.0218
540 79 12.0123 18.2266 10.3949 38.1707 0.0000 35.9513
541 79 12.5297 16.4416 11.9694 37.2881 0.0000 35.8846
542 79 14.4753 18.6354 12.1853 37.7082 0.0000 37.6956
543 79 13.8966 16.3921 14.2343 35.1588 0.0000 31.2891
544 79 12.0814 18.0795 14.3084 48.5510 0.0000 34.3729
545 79 12.2759 16.7819 15.7930 42.4454 0.0000 30.8010
546 79 14.6431 18.5745 16.1045 40.0962 0.0000 35.4259
547 79 14.6745 15.8016 18.7876 45.5471 0.0000 31.7070
548 79 11.9939 18.9246 17.7921 43.1474 0.0000 32.1419
549 79 11.8882 16.1588 20.0482 47.2273 0.0000 31.4066
550 79 13.7292 18.3134 20.6444 45.3881 0.0000 30.8416
551 79 14.7868 16.1443 22.3252 40.4123 0.0000 29.5376
552 79 11.8108 18.4951 22.5411 48.9632 0.0000 29.4817
553 79 11.8190 20.1496 0.2862 45.1813 0.0000 36.6886
554 79 14.3883 22.3249 -0.7072 50.8833 0.0000 32.4218
555 79 14.2187 20.5191 2.3237 44.2045 0.0000 35.1593
556 79 11.9872 22.5359 1.6996 45.3970 0.0000 31.8843
557 79 12.1098 20.0178 4.1352 34.4180 0.0000 29.3332
558 79 14.2845 22.1058 4.5318 50.7491 0.0000 32.7540
559 79 15.0363 20.5679 6.2699 49.4324 0.0000 35.8631
560 79 11.6973 22.3538 5.9517 49.2064 0.0000 29.5854
561 79 12.3571 20.5315 8.6969 35.3159 0.0000 30.8323
562 79 14.0173 23.2334 8.4433 36.9482 0.0000 31.9753
563 79 13.9447 20.6925 10.5709 49.6504 0.0000 29.2125
564 79 12.3551 22.0484 10.5162 50.8368 0.0000 32.9755
565 79 12.1647 20.1375 12.3299 36.3430 0.0000 29.7004
566 79 14.2384 22.4924 12.3264 47.3741 0.0000 29.5862
567 79 14.5180 21.0518 13.7226 51.1845 0.0000 36.3978
568 79 11.8966 22.6855 13.5613 40.8559 0.0000 31.4509
569 79 12.0997 19.9790 16.5096 41.0249 0.0000 31.3345