ITEM: TIMESTEP
0
ITEM: NUMBER OF ATOMS
1024
ITEM: BOX BOUNDS pp pp pp
0.0 24.2400
0.0 24.2400
0.0 24.2400
ITEM: ATOMS id type x y z error strain stiffness
1 23 0.0121 0.0002 0.0077 0.9380 0.0000 0.9737
2 23 1.5132 1.5061 1.5130 1.1931 0.0000 0.8552
3 23 0.0091 0.0060 3.0271 1.1110 0.0000 0.8902
4 23 1.5130 1.5196 4.5395 0.8830 0.0000 0.7935
5 23 0.0148 0.0010 6.0747 0.9733 0.0000 0.8664
6 23 1.5146 1.5249 7.5679 1.2606 0.0000 0.8443
7 23 -0.0012 0.0018 9.0916 0.9329 0.0000 0.8704
8 23 1.5210 1.5146 10.6168 1.0899 0.0000 0.8031
9 23 0.0072 -0.0003 12.1217 1.2910 0.0000 0.9030
10 23 1.5056 1.5094 13.6324 1.1908 0.0000 0.7762
11 23 0.0048 -0.0035 15.1645 1.0441 0.0000 1.0437
12 23 1.5181 1.5190 16.6740 0.9452 0.0000 0.9519
13 23 -0.0019 0.0070 18.1835 0.8785 0.0000 0.9744
14 23 1.5190 1.5113 19.6903 0.9904 0.0000 0.8969
15 23 -0.0034 0.0041 21.2124 0.9847 0.0000 0.9440
16 23 1.5070 1.5058 22.7361 1.2711 0.0000 0.8304
17 23 -0.0031 3.0163 0.0091 1.2255 0.0000 0.9924
18 23 1.5098 4.5386 1.5171 0.9330 0.0000 0.8414
19 23 0.0062 3.0289 3.0347 0.8821 0.0000 1.0301
20 23 1.5252 4.5375 4.5499 1.1374 0.0000 0.8092
21 23 -0.0066 3.0262 6.0624 0.9732 0.0000 0.9845
22 23 1.5109 4.5255 7.5710 0.9744 0.0000 0.9396
23 23 0.0040 3.0259 9.0921 1.1863 0.0000 0.8104
24 23 1.4991 4.5333 10.5979 0.8838 0.0000 1.0102
25 23 0.0147 3.0348 12.1350 1.0280 0.0000 0.8426
26 23 1.5138 4.5493 13.6359 1.1313 0.0000 1.0033
27 23 0.0001 3.0339 15.1643 0.9794 0.0000 0.9588
28 23 1.5174 4.5507 16.6644 1.1738 0.0000 0.8807
29 23 -0.0035 3.0256 18.1742 1.2608 0.0000 1.0113
30 23 1.5159 4.5441 19.6897 1.1734 0.0000 0.8769
31 23 -0.0086 3.0183 21.2134 1.1162 0.0000 0.9069
32 23 1.5129 4.5457 22.7175 1.2801 0.0000 0.8025
33 23 0.0095 6.0515 -0.0021 1.1076 0.0000 0.9247
34 23 1.5200 7.5638 1.5208 1.0401 0.0000 0.8900
35 23 -0.0025 6.0612 3.0280 1.0939 0.0000 1.0065
36 23 1.5182 7.5743 4.5461 1.1351 0.0000 0.8910
37 23 0.0028 6.0542 6.0539 1.0913 0.0000 0.9203
38 23 1.5248 7.5799 7.5776 1.2161 0.0000 0.9150
39 23 0.0058 6.0688 9.0881 0.9066 0.0000 0.7917
40 23 1.5158 7.5892 10.6055 0.9349 0.0000 0.9997
41 23 -0.0024 6.0711 12.1109 1.0626 0.0000 0.9966
42 23 1.5032 7.5690 13.6324 1.0623 0.0000 1.0135
43 23 0.0048 6.0658 15.1454 0.9054 0.0000 0.8116
44 23 1.5131 7.5774 16.6649 1.0640 0.0000 0.9065
45 23 0.0072 6.0589 18.1749 1.0790 0.0000 0.7895
46 23 1.5049 7.5724 19.6937 1.1764 0.0000 0.8759
47 23 -0.0063 6.0506 21.2062 0.9432 0.0000 0.9313
48 23 1.5168 7.5730 22.7335 1.1567 0.0000 0.9263
49 23 0.0035 9.0953 -0.0162 0.8992 0.0000 0.8907
50 23 1.5105 10.6000 1.5084 0.9621 0.0000 1.0192
51 23 -0.0034 9.0956 3.0421 1.2753 0.0000 0.9827
52 23 1.5168 10.5962 4.5523 0.8709 0.0000 0.9273
53 23 0.0116 9.0985 6.0476 1.1174 0.0000 0.9902
54 23 1.5141 10.6282 7.5758 0.9999 0.0000 0.8606
55 23 -0.0048 9.0783 9.0806 0.9226 0.0000 0.9136
56 23 1.5186 10.6040 10.6014 0.9701 0.0000 1.0322
57 23 0.0027 9.0865 12.1104 1.1671 0.0000 0.9850
58 23 1.5195 10.6088 13.6356 1.0182 0.0000 0.9303
59 23 -0.0111 9.0840 15.1316 1.1140 0.0000 0.8519
60 23 1.5164 10.6095 16.6645 1.0765 0.0000 1.0336
61 23 0.0109 9.0944 18.1822 1.0308 0.0000 1.0312
62 23 1.4973 10.6022 19.6888 1.1931 0.0000 1.0142
63 23 -0.0002 9.0916 21.2099 0.9709 0.0000 0.7759
64 23 1.5070 10.6106 22.7246 0.9568 0.0000 0.9776
65 23 -0.0100 12.1195 -0.0096 1.1234 0.0000 0.9445
66 23 1.5042 13.6395 1.5193 1.1980 0.0000 0.9976
67 23 -0.0053 12.1094 3.0223 1.1666 0.0000 0.9836
68 23 1.5230 13.6216 4.5438 0.9058 0.0000 0.7872
69 23 -0.0068 12.1248 6.0595 1.2565 0.0000 0.8087
70 23 1.4989 13.6394 7.5756 0.8856 0.0000 1.0305
71 23 0.0072 12.1180 9.0891 1.0087 0.0000 0.9655
72 23 1.5252 13.6329 10.6066 0.9962 0.0000 0.7806
73 23 0.0027 12.1128 12.1117 1.1120 0.0000 1.0443
74 23 1.5126 13.6377 13.6394 0.9427 0.0000 0.9891
75 23 0.0003 12.1116 15.1486 1.1092 0.0000 0.8827
76 23 1.5148 13.6387 16.6667 0.8892 0.0000 1.0079
77 23 -0.0035 12.1183 18.1817 1.1375 0.0000 0.9838
78 23 1.5259 13.6295 19.6991 0.8736 0.0000 0.8138
79 23 -0.0106 12.1210 21.2117 1.1226 0.0000 0.9117
80 23 1.5189 13.6429 22.7296 1.1645 0.0000 1.0014
81 23 -0.0016 15.1395 -0.0082 1.2282 0.0000 1.0357
82 23 1.5051 16.6681 1.5111 0.8969 0.0000 1.0036
83 23 -0.0114 15.1427 3.0363 1.0026 0.0000 0.9975
84 23 1.5135 16.6635 4.5421 1.0728 0.0000 0.8211
85 23 0.0006 15.1357 6.0664 1.0972 0.0000 1.0348
86 23 1.5050 16.6636 7.5803 1.0755 0.0000 1.0438
87 23 -0.0000 15.1516 9.0984 0.9070 0.0000 0.8479
88 23 1.5154 16.6683 10.6099 1.0998 0.0000 0.9298
89 23 0.0047 15.1540 12.1084 0.9179 0.0000 0.9094
90 23 1.5216 16.6607 13.6264 1.2305 0.0000 0.9954
91 23 -0.0058 15.1377 15.1545 1.1779 0.0000 0.9018
92 23 1.5103 16.6662 16.6698 1.0364 0.0000 0.9744
93 23 -0.0107 15.1452 18.1670 0.8802 0.0000 1.0350
94 23 1.5130 16.6729 19.6961 1.0310 0.0000 0.9897
95 23 0.0143 15.1502 21.2226 0.8972 0.0000 1.0114
96 23 1.5218 16.6738 22.7260 1.1689 0.0000 0.9824
97 23 -0.0024 18.1815 0.0012 1.0370 0.0000 0.9126
98 23 1.5080 19.6905 1.5134 1.1671 0.0000 0.9270
99 23 0.0000 18.1879 3.0294 0.8980 0.0000 1.0019
100 23 1.5098 19.7004 4.5381 0.9837 0.0000 0.8901
101 23 -0.0009 18.1794 6.0550 1.1376 0.0000 0.8248
102 23 1.5174 19.6980 7.5872 0.8695 0.0000 0.8537
103 23 -0.0037 18.1739 9.0913 1.2000 0.0000 0.9464
104 23 1.5173 19.6965 10.6090 1.0812 0.0000 0.8558
105 23 0.0041 18.1779 12.1301 1.2675 0.0000 0.7802
106 23 1.5048 19.6892 13.6491 0.9249 0.0000 1.0333
107 23 -0.0104 18.1725 15.1394 0.9994 0.0000 0.8815
108 23 1.5234 19.6917 16.6801 0.9640 0.0000 0.9717
109 23 0.0046 18.1746 18.1736 1.1934 0.0000 1.0225
110 23 1.5121 19.7060 19.6898 0.9532 0.0000 0.9278
111 23 0.0053 18.1793 21.2083 1.1026 0.0000 0.8088
112 23 1.5094 19.6981 22.7277 0.9850 0.0000 0.8379
113 23 -0.0069 21.2041 -0.0008 1.2614 0.0000 1.0430
114 23 1.5048 22.7315 1.5234 0.9263 0.0000 0.7823
115 23 -0.0080 21.2152 3.0335 1.1726 0.0000 0.9839
116 23 1.5188 22.7203 4.5464 1.1827 0.0000 1.0338
117 23 -0.0056 21.2221 6.0654 1.2393 0.0000 0.7873
118 23 1.5101 22.7256 7.5848 1.0738 0.0000 0.8602
119 23 -0.0029 21.2203 9.0808 0.9710 0.0000 0.8119
120 23 1.5318 22.7438 10.6050 0.9465 0.0000 1.0434
121 23 0.0012 21.1986 12.1174 0.9257 0.0000 0.8243
122 23 1.5204 22.7279 13.6487 0.9883 0.0000 0.8309
123 23 -0.0009 21.2155 15.1481 0.8781 0.0000 1.0270
124 23 1.5175 22.7337 16.6677 1.0231 0.0000 0.7966
125 23 0.0004 21.2120 18.1657 1.1675 0.0000 0.8835
126 23 1.5172 22.7227 19.7000 1.2838 0.0000 0.9104
127 23 0.0051 21.2108 21.2122 0.9503 0.0000 0.9812
128 23 1.5052 22.7280 22.7285 1.0876 0.0000 0.9981
129 23 3.0268 0.0080 0.0067 1.0157 0.0000 0.8056
130 23 4.5382 1.5154 1.5171 0.9273 0.0000 0.9655
131 23 3.0223 0.0009 3.0312 1.1402 0.0000 0.8665
132 23 4.5425 1.5319 4.5461 1.0686 0.0000 0.8842
133 23 3.0256 0.0080 6.0624 1.0150 0.0000 0.8324
134 23 4.5412 1.5222 7.5804 1.1312 0.0000 0.8180
135 23 3.0255 0.0026 9.0990 1.2381 0.0000 1.0045
136 23 4.5366 1.5150 10.5986 1.1550 0.0000 1.0434
137 23 3.0390 0.0088 12.1121 0.8710 0.0000 0.8326
138 23 4.5439 1.5171 13.6405 0.9730 0.0000 0.8284
139 23 3.0290 -0.0015 15.1509 0.9908 0.0000 0.8576
140 23 4.5450 1.5123 16.6684 0.8701 0.0000 1.0061
141 23 3.0392 -0.0120 18.1807 0.8925 0.0000 0.9541
142 23 4.5459 1.5125 19.6951 0.9136 0.0000 0.8116
143 23 3.0168 0.0053 21.2019 1.2641 0.0000 0.8909
144 23 4.5562 1.5109 22.7223 1.2626 0.0000 0.8536
145 23 3.0355 3.0313 -0.0060 1.0336 0.0000 0.8107
146 23 4.5540 4.5448 1.5217 0.8951 0.0000 0.9192
147 23 3.0238 3.0250 3.0306 1.1927 0.0000 0.8947
148 23 4.5386 4.5444 4.5400 1.2230 0.0000 1.0454
149 23 3.0289 3.0248 6.0587 0.8968 0.0000 0.9289
150 23 4.5434 4.5473 7.5630 1.0003 0.0000 0.8489
151 23 3.0361 3.0282 9.0867 1.0086 0.0000 0.9552
152 23 4.5496 4.5520 10.5970 0.9893 0.0000 0.9952
153 23 3.0357 3.0329 12.1193 0.9986 0.0000 0.8205
154 23 4.5450 4.5420 13.6311 0.9808 0.0000 0.9050
155 23 3.0329 3.0302 15.1506 1.2376 0.0000 1.0394
156 23 4.5539 4.5488 16.6648 1.0051 0.0000 0.8937
157 23 3.0373 3.0288 18.1748 0.9291 0.0000 0.9736
158 23 4.5484 4.5417 19.6913 0.9060 0.0000 0.9245
159 23 3.0271 3.0270 21.2108 1.0903 0.0000 0.7885
160 23 4.5394 4.5388 22.7345 1.0435 0.0000 0.7903
161 23 3.0315 6.0622 0.0106 0.8740 0.0000 0.8599
162 23 4.5513 7.5769 1.5135 1.2867 0.0000 1.0300
163 23 3.0349 6.0686 3.0364 1.2032 0.0000 0.9793
164 23 4.5465 7.5705 4.5424 1.2794 0.0000 0.8349
165 23 3.0311 6.0579 6.0504 1.1634 0.0000 0.9418
166 23 4.5556 7.5785 7.5745 0.9839 0.0000 0.8441
167 23 3.0159 6.0653 9.0907 1.0509 0.0000 1.0332
168 23 4.5451 7.5800 10.6106 1.2633 0.0000 0.8803
169 23 3.0183 6.0599 12.1237 0.9749 0.0000 0.7761
170 23 4.5375 7.5754 13.6422 1.0808 0.0000 0.9657
171 23 3.0237 6.0529 15.1471 1.2285 0.0000 0.8927
172 23 4.5440 7.5772 16.6682 0.9040 0.0000 0.9360
173 23 3.0222 6.0617 18.1978 0.9302 0.0000 0.9016
174 23 4.5509 7.5692 19.7067 1.0274 0.0000 1.0217
175 23 3.0309 6.0668 21.2141 1.0215 0.0000 0.8228
176 23 4.5417 7.5606 22.7344 0.9093 0.0000 0.9796
177 23 3.0175 9.0800 -0.0047 0.9195 0.0000 0.9710
178 23 4.5476 10.5977 1.5288 1.0448 0.0000 1.0067
179 23 3.0224 9.0939 3.0299 1.1734 0.0000 0.8802
180 23 4.5428 10.6179 4.5479 1.1194 0.0000 0.8827
181 23 3.0320 9.0882 6.0594 1.0671 0.0000 1.0110
182 23 4.5511 10.6025 7.5891 1.1175 0.0000 0.8457
183 23 3.0415 9.0923 9.0811 1.0937 0.0000 0.9332
184 23 4.5429 10.6115 10.6005 0.9208 0.0000 0.9203
185 23 3.0345 9.0920 12.1307 1.0055 0.0000 0.9317
186 23 4.5359 10.6102 13.6420 1.2405 0.0000 0.9379
187 23 3.0400 9.0861 15.1560 0.9910 0.0000 0.7761
188 23 4.5435 10.6118 16.6578 1.1621 0.0000 0.9267
189 23 3.0304 9.0961 18.1793 1.1578 0.0000 0.9210
190 23 4.5419 10.6169 19.6928 1.0201 0.0000 0.8917
191 23 3.0386 9.0851 21.2062 1.1690 0.0000 1.0159
192 23 4.5506 10.6075 22.7313 1.2149 0.0000 1.0295
193 23 3.0284 12.1163 -0.0111 1.2927 0.0000 0.9270
194 23 4.5387 13.6314 1.5116 1.1741 0.0000 0.9240
195 23 3.0367 12.1162 3.0214 1.0943 0.0000 0.9391
196 23 4.5449 13.6305 4.5472 0.8825 0.0000 0.7788
197 23 3.0295 12.1275 6.0593 1.1474 0.0000 0.9271
198 23 4.5468 13.6451 7.5846 1.0451 0.0000 0.8928
199 23 3.0386 12.1287 9.0798 1.2503 0.0000 0.8133
200 23 4.5481 13.6221 10.6140 1.2470 0.0000 0.7944
201 23 3.0325 12.1200 12.1120 1.2095 0.0000 0.8583
202 23 4.5456 13.6270 13.6339 0.9037 0.0000 0.9185
203 23 3.0213 12.1200 15.1366 1.1660 0.0000 0.8612
204 23 4.5525 13.6290 16.6665 0.9054 0.0000 0.7989
205 23 3.0269 12.1253 18.1804 0.9959 0.0000 0.9420
206 23 4.5468 13.6321 19.6990 1.2054 0.0000 0.8908
207 23 3.0369 12.1255 21.2238 1.2722 0.0000 0.9879
208 23 4.5455 13.6369 22.7098 1.0982 0.0000 0.9630
209 23 3.0271 15.1560 -0.0115 0.9146 0.0000 1.0116
210 23 4.5461 16.6591 1.5240 1.1819 0.0000 0.9501
211 23 3.0313 15.1626 3.0401 1.1653 0.0000 0.9191
212 23 4.5445 16.6711 4.5454 0.9463 0.0000 0.8366
213 23 3.0399 15.1534 6.0593 1.1917 0.0000 0.9507
214 23 4.5389 16.6702 7.5718 1.2357 0.0000 0.9874
215 23 3.0240 15.1571 9.0889 0.8886 0.0000 0.9614
216 23 4.5463 16.6660 10.6062 1.2774 0.0000 1.0144
217 23 3.0431 15.1361 12.1188 1.0449 0.0000 0.8556
218 23 4.5535 16.6738 13.6401 1.0544 0.0000 0.8830
219 23 3.0255 15.1581 15.1389 1.2628 0.0000 0.9161
220 23 4.5525 16.6739 16.6600 1.2166 0.0000 0.7757
221 23 3.0272 15.1466 18.1788 1.1409 0.0000 0.8259
222 23 4.5479 16.6644 19.6960 1.0700 0.0000 0.8002
223 23 3.0252 15.1406 21.2161 1.2903 0.0000 0.8670
224 23 4.5515 16.6654 22.7232 1.2140 0.0000 0.8058
225 23 3.0179 18.1899 0.0032 0.9956 0.0000 0.8098
226 23 4.5497 19.6970 1.5052 0.9817 0.0000 0.8366
227 23 3.0398 18.1817 3.0342 1.1204 0.0000 1.0451
228 23 4.5462 19.7002 4.5465 0.8826 0.0000 0.8200
229 23 3.0298 18.1798 6.0493 1.2754 0.0000 0.8989
230 23 4.5485 19.6940 7.5787 0.8722 0.0000 0.9300
231 23 3.0379 18.1793 9.0772 1.0759 0.0000 0.7765
232 23 4.5522 19.6949 10.6190 1.0482 0.0000 0.8597
233 23 3.0319 18.1776 12.1240 0.9070 0.0000 1.0133
234 23 4.5483 19.6846 13.6405 1.1950 0.0000 0.9001
235 23 3.0305 18.1921 15.1537 0.9905 0.0000 0.8853
236 23 4.5461 19.7011 16.6709 1.2507 0.0000 1.0443
237 23 3.0191 18.1948 18.1906 1.2909 0.0000 0.8336
238 23 4.5319 19.6857 19.6979 0.8818 0.0000 0.9458
239 23 3.0317 18.1842 21.2186 1.0488 0.0000 0.8729
240 23 4.5391 19.6977 22.7254 1.2057 0.0000 0.8512
241 23 3.0383 21.2114 0.0041 1.1977 0.0000 0.9058
242 23 4.5477 22.7223 1.5153 1.2358 0.0000 0.9562
243 23 3.0282 21.2082 3.0267 1.0359 0.0000 0.9177
244 23 4.5375 22.7153 4.5463 0.9791 0.0000 1.0028
245 23 3.0262 21.2061 6.0538 0.8676 0.0000 0.9334
246 23 4.5466 22.7248 7.5860 1.0395 0.0000 0.8978
247 23 3.0507 21.1936 9.0835 0.9767 0.0000 0.9733
248 23 4.5521 22.7218 10.6039 0.9490 0.0000 0.7934
249 23 3.0365 21.2039 12.1180 0.9101 0.0000 0.8728
250 23 4.5483 22.7304 13.6352 1.2187 0.0000 0.8978
251 23 3.0303 21.2136 15.1487 1.0035 0.0000 0.9651
252 23 4.5482 22.7272 16.6627 1.2573 0.0000 0.9375
253 23 3.0229 21.2087 18.1826 1.0932 0.0000 0.8725
254 23 4.5409 22.7315 19.7014 1.2666 0.0000 0.7899
255 23 3.0276 21.1994 21.2187 1.2776 0.0000 1.0458
256 23 4.5480 22.7267 22.7152 1.1061 0.0000 0.8869
257 23 6.0750 -0.0071 0.0047 1.0634 0.0000 0.8624
258 23 7.5774 1.5212 1.4998 0.9928 0.0000 0.8553
259 23 6.0541 -0.0005 3.0419 1.1752 0.0000 0.9649
260 23 7.5732 1.5129 4.5447 0.8969 0.0000 0.9724
261 23 6.0685 -0.0030 6.0557 0.9290 0.0000 0.9436
262 23 7.5664 1.5198 7.5767 1.1942 0.0000 1.0415
263 23 6.0576 0.0104 9.0845 1.2130 0.0000 0.9762
264 23 7.5729 1.5133 10.6162 1.2918 0.0000 0.9669
265 23 6.0515 0.0014 12.1215 0.9968 0.0000 0.9990
266 23 7.5903 1.5236 13.6348 1.2805 0.0000 0.9068
267 23 6.0608 -0.0004 15.1530 1.1577 0.0000 0.7890
268 23 7.5781 1.5219 16.6793 0.9979 0.0000 0.9562
269 23 6.0616 -0.0021 18.1852 0.9217 0.0000 1.0376
270 23 7.5745 1.5093 19.7023 1.0608 0.0000 0.9982
271 23 6.0602 -0.0018 21.2040 0.9281 0.0000 0.8992
272 23 7.5797 1.5164 22.7272 1.0174 0.0000 0.7939
273 23 6.0631 3.0391 0.0121 1.0455 0.0000 0.8870
274 23 7.5753 4.5556 1.5313 1.1179 0.0000 0.8854
275 23 6.0606 3.0243 3.0256 0.9011 0.0000 0.8438
276 23 7.5584 4.5554 4.5542 0.8801 0.0000 0.8766
277 23 6.0511 3.0248 6.0582 1.2796 0.0000 0.9490
278 23 7.5821 4.5448 7.5806 1.2162 0.0000 0.9997
279 23 6.0587 3.0414 9.0882 1.2587 0.0000 0.8362
280 23 7.5684 4.5448 10.6149 1.0201 0.0000 0.8786
281 23 6.0519 3.0348 12.1207 0.8764 0.0000 0.8484
282 23 7.5727 4.5414 13.6397 1.1761 0.0000 1.0328
283 23 6.0614 3.0315 15.1508 1.1652 0.0000 1.0330
284 23 7.5758 4.5543 16.6641 1.2722 0.0000 0.8145
285 23 6.0587 3.0332 18.1704 1.1465 0.0000 0.9942
286 23 7.5788 4.5478 19.7083 0.9558 0.0000 0.9373
287 23 6.0706 3.0403 21.2136 0.9782 0.0000 0.9468
288 23 7.5813 4.5480 22.7238 0.8806 0.0000 0.8569
289 23 6.0500 6.0543 -0.0057 1.0206 0.0000 0.8055
290 23 7.5786 7.5765 1.5219 1.0965 0.0000 0.7887
291 23 6.0605 6.0530 3.0215 1.1724 0.0000 1.0379
292 23 7.5799 7.5693 4.5343 1.1345 0.0000 0.7748
293 23 6.0681 6.0553 6.0483 1.0579 0.0000 0.9469
294 23 7.5862 7.5647 7.5753 1.1937 0.0000 0.8998
295 23 6.0642 6.0639 9.0909 1.2367 0.0000 0.9330
296 23 7.5758 7.5703 10.6034 1.0250 0.0000 0.8379
297 23 6.0507 6.0550 12.1201 1.1841 0.0000 0.9607
298 23 7.5790 7.5761 13.6325 1.2878 0.0000 0.8178
299 23 6.0657 6.0511 15.1539 1.1002 0.0000 0.8004
300 23 7.5768 7.5800 16.6684 1.1864 0.0000 0.8015
301 23 6.0583 6.0743 18.1851 0.9386 0.0000 0.9161
302 23 7.5719 7.5864 19.6949 1.2787 0.0000 0.7901
303 23 6.0664 6.0452 21.2106 0.9398 0.0000 0.8771
304 23 7.5815 7.5795 22.7240 1.0661 0.0000 0.9421
305 23 6.0583 9.0781 0.0079 1.1165 0.0000 0.9146
306 23 7.5762 10.6088 1.5192 1.2115 0.0000 0.9845
307 23 6.0601 9.0927 3.0237 0.9467 0.0000 0.9618
308 23 7.5811 10.6024 4.5474 1.1628 0.0000 0.9053
309 23 6.0551 9.0890 6.0675 1.1373 0.0000 0.8084
310 23 7.5910 10.6044 7.5819 0.8966 0.0000 1.0306
311 23 6.0603 9.1092 9.0870 1.1739 0.0000 0.9976
312 23 7.5746 10.5928 10.6067 1.1104 0.0000 0.8683
313 23 6.0532 9.0819 12.1092 1.2516 0.0000 0.8971
314 23 7.5706 10.6014 13.6395 1.2740 0.0000 0.9956
315 23 6.0623 9.0930 15.1398 1.2169 0.0000 0.9495
316 23 7.5827 10.6052 16.6688 0.9048 0.0000 0.8231
317 23 6.0634 9.0855 18.1822 1.2650 0.0000 0.7767
318 23 7.5662 10.5997 19.6874 1.0212 0.0000 0.8018
319 23 6.0518 9.0902 21.1973 0.9963 0.0000 0.9539
320 23 7.5786 10.6005 22.7309 1.1895 0.0000 0.9082
321 23 6.0598 12.1072 -0.0070 1.0407 0.0000 0.7862
322 23 7.5763 13.6233 1.5162 1.2235 0.0000 0.8617
323 23 6.0674 12.1202 3.0282 1.0347 0.0000 0.8080
324 23 7.5859 13.6342 4.5592 1.0095 0.0000 0.7957
325 23 6.0515 12.1128 6.0588 0.9927 0.0000 1.0302
326 23 7.5689 13.6295 7.5675 1.0758 0.0000 0.7865
327 23 6.0655 12.1242 9.0943 0.8981 0.0000 0.8694
328 23 7.5807 13.6361 10.6068 0.9343 0.0000 0.8145
329 23 6.0536 12.1294 12.1165 1.1438 0.0000 0.9243
330 23 7.5692 13.6310 13.6347 0.9574 0.0000 1.0226
331 23 6.0546 12.1276 15.1537 1.2967 0.0000 0.8325
332 23 7.5862 13.6290 16.6609 1.2086 0.0000 0.9419
333 23 6.0580 12.1086 18.1784 0.9400 0.0000 0.7930
334 23 7.5711 13.6377 19.7017 1.0954 0.0000 0.8179
335 23 6.0477 12.1218 21.2094 1.0381 0.0000 0.9100
336 23 7.5806 13.6332 22.7139 1.2621 0.0000 0.8508
337 23 6.0567 15.1547 0.0082 0.8808 0.0000 0.9376
338 23 7.5737 16.6505 1.5103 1.0318 0.0000 0.9586
339 23 6.0477 15.1559 3.0324 1.1670 0.0000 1.0344
340 23 7.5696 16.6742 4.5476 1.2455 0.0000 0.8522
341 23 6.0605 15.1570 6.0547 1.1934 0.0000 0.8131
342 23 7.5802 16.6721 7.5749 1.1663 0.0000 0.9142
343 23 6.0544 15.1586 9.0826 1.0161 0.0000 0.9390
344 23 7.5873 16.6596 10.6041 1.1312 0.0000 0.9521
345 23 6.0623 15.1478 12.1141 1.2602 0.0000 0.9788
346 23 7.5809 16.6664 13.6331 1.1580 0.0000 0.8523
347 23 6.0639 15.1378 15.1492 1.0425 0.0000 0.9159
348 23 7.5679 16.6662 16.6668 1.2047 0.0000 0.8875
349 23 6.0567 15.1591 18.1754 1.0488 0.0000 1.0254
350 23 7.5836 16.6610 19.6892 0.9214 0.0000 0.8580
351 23 6.0631 15.1584 21.2039 0.9255 0.0000 1.0003
352 23 7.5804 16.6673 22.7290 0.9377 0.0000 0.7999
353 23 6.0766 18.1816 -0.0066 0.9053 0.0000 0.8860
354 23 7.5853 19.6872 1.5256 0.9616 0.0000 0.9614
355 23 6.0518 18.1813 3.0243 0.9160 0.0000 0.8226
356 23 7.5793 19.6828 4.5547 0.9678 0.0000 1.0091
357 23 6.0672 18.1699 6.0586 1.2706 0.0000 0.8695
358 23 7.5723 19.7044 7.5809 0.9747 0.0000 0.9754
359 23 6.0643 18.1812 9.0929 0.9614 0.0000 0.9696
360 23 7.5794 19.7090 10.6028 1.2213 0.0000 0.8306
361 23 6.0660 18.1828 12.1204 1.2204 0.0000 0.9028
362 23 7.5754 19.6936 13.6338 1.0430 0.0000 0.9477
363 23 6.0659 18.1872 15.1549 1.0488 0.0000 0.9213
364 23 7.5816 19.6880 16.6591 0.9370 0.0000 0.9016
365 23 6.0534 18.1754 18.1878 0.9760 0.0000 0.8145
366 23 7.5802 19.6911 19.6900 1.0665 0.0000 1.0168
367 23 6.0591 18.1704 21.2060 1.2290 0.0000 0.9281
368 23 7.5663 19.6955 22.7219 0.9969 0.0000 0.9464
369 23 6.0533 21.2117 0.0094 1.0245 0.0000 1.0440
370 23 7.5640 22.7302 1.5179 1.2865 0.0000 0.9468
371 23 6.0500 21.2073 3.0250 0.9481 0.0000 0.9313
372 23 7.5767 22.7323 4.5470 1.1484 0.0000 0.9003
373 23 6.0653 21.2059 6.0520 1.2873 0.0000 0.8982
374 23 7.5636 22.7306 7.5889 0.9419 0.0000 1.0242
375 23 6.0544 21.2090 9.0832 1.0950 0.0000 0.8732
376 23 7.5723 22.7221 10.5940 1.2891 0.0000 1.0312
377 23 6.0544 21.2034 12.1276 1.2825 0.0000 0.8524
378 23 7.5774 22.7231 13.6537 0.9832 0.0000 0.8555
379 23 6.0581 21.2223 15.1497 0.8980 0.0000 0.9256
380 23 7.5802 22.7196 16.6646 0.8938 0.0000 0.8136
381 23 6.0733 21.2065 18.1776 0.9140 0.0000 0.7820
382 23 7.5763 22.7195 19.7034 1.0942 0.0000 0.9934
383 23 6.0717 21.2140 21.2131 1.1207 0.0000 0.8842
384 23 7.5772 22.7314 22.7144 1.0442 0.0000 1.0243
385 23 9.0971 0.0078 0.0117 0.9319 0.0000 0.8993
386 23 10.6197 1.5159 1.5184 0.9440 0.0000 0.9545
387 23 9.0963 -0.0006 3.0296 1.1289 0.0000 0.8352
388 23 10.6136 1.5147 4.5526 1.0980 0.0000 0.9550
389 23 9.0938 0.0084 6.0725 1.0669 0.0000 0.8428
390 23 10.6068 1.5156 7.5729 1.0867 0.0000 1.0317
391 23 9.0944 -0.0099 9.0956 1.2498 0.0000 0.8272
392 23 10.6110 1.5204 10.5994 0.9778 0.0000 0.9348
393 23 9.0934 0.0106 12.1302 1.1454 0.0000 0.7918
394 23 10.6018 1.5218 13.6411 1.0827 0.0000 0.9142
395 23 9.0918 0.0006 15.1421 1.2197 0.0000 0.8820
396 23 10.6105 1.5183 16.6618 1.2896 0.0000 0.9145
397 23 9.0982 0.0103 18.1712 1.2847 0.0000 1.0280
398 23 10.6115 1.5247 19.6857 0.9975 0.0000 0.7876
399 23 9.0816 -0.0064 21.2159 1.2343 0.0000 0.9622
400 23 10.6055 1.5034 22.7261 1.0807 0.0000 1.0349
401 23 9.0941 3.0351 0.0042 1.0961 0.0000 0.9166
402 23 10.6028 4.5434 1.5162 0.9721 0.0000 0.8279
403 23 9.0858 3.0314 3.0245 1.2721 0.0000 0.9715
404 23 10.5987 4.5509 4.5442 1.0342 0.0000 0.9082
405 23 9.0932 3.0378 6.0699 1.0232 0.0000 0.9227
406 23 10.6085 4.5357 7.5731 0.8835 0.0000 0.8926
407 23 9.0868 3.0278 9.0944 1.0499 0.0000 0.8019
408 23 10.6040 4.5479 10.6031 1.0159 0.0000 1.0313
409 23 9.0843 3.0375 12.1188 0.9846 0.0000 1.0365
410 23 10.6037 4.5513 13.6321 0.9397 0.0000 0.8469
411 23 9.0866 3.0277 15.1480 1.2711 0.0000 0.8304
412 23 10.6016 4.5455 16.6664 0.9912 0.0000 0.9485
413 23 9.0921 3.0414 18.1837 1.2658 0.0000 0.9707
414 23 10.6090 4.5384 19.6917 0.9370 0.0000 0.9145
415 23 9.0785 3.0391 21.2073 1.0561 0.0000 0.8631
416 23 10.6229 4.5301 22.7296 1.0470 0.0000 0.7812
417 23 9.0919 6.0607 0.0052 1.0656 0.0000 0.8679
418 23 10.6027 7.5681 1.5186 1.1888 0.0000 0.8137
419 23 9.0907 6.0572 3.0374 0.8700 0.0000 1.0141
420 23 10.6087 7.5788 4.5443 0.9669 0.0000 0.9175
421 23 9.0901 6.0518 6.0544 1.0239 0.0000 0.8656
422 23 10.6100 7.5761 7.5811 0.9448 0.0000 0.9003
423 23 9.0831 6.0534 9.0897 1.0540 0.0000 0.7874
424 23 10.5957 7.5836 10.6062 1.0903 0.0000 1.0469
425 23 9.0943 6.0785 12.1221 1.1646 0.0000 1.0249
426 23 10.6121 7.5785 13.6230 0.9966 0.0000 0.8394
427 23 9.0800 6.0487 15.1516 1.0004 0.0000 0.9017
428 23 10.5992 7.5818 16.6580 1.1637 0.0000 0.9798
429 23 9.0889 6.0669 18.1739 1.0639 0.0000 0.9823
430 23 10.6071 7.5681 19.6891 1.0882 0.0000 0.8168
431 23 9.0886 6.0706 21.2048 1.0077 0.0000 0.9086
432 23 10.6105 7.5831 22.7212 1.1656 0.0000 1.0382
433 23 9.0904 9.1043 0.0062 1.2558 0.0000 0.8270
434 23 10.6008 10.6017 1.5236 1.0850 0.0000 0.9162
435 23 9.0957 9.0846 3.0206 1.0894 0.0000 1.0445
436 23 10.6033 10.6049 4.5394 1.1179 0.0000 0.9031
437 23 9.0877 9.0855 6.0699 1.0395 0.0000 0.9019
438 23 10.6016 10.6048 7.5764 1.2838 0.0000 0.8622
439 23 9.0942 9.0842 9.0884 1.1824 0.0000 0.9291
440 23 10.6057 10.6125 10.6069 0.9193 0.0000 0.9826
441 23 9.0866 9.0854 12.1136 0.9508 0.0000 0.8890
442 23 10.5961 10.5998 13.6400 1.0706 0.0000 0.9673
443 23 9.0873 9.0855 15.1464 1.0642 0.0000 0.8307
444 23 10.6048 10.6161 16.6655 0.8748 0.0000 0.9984
445 23 9.0882 9.0894 18.1848 0.8770 0.0000 0.8848
446 23 10.6076 10.5995 19.6899 0.9577 0.0000 1.0333
447 23 9.0913 9.0830 21.2064 1.1512 0.0000 0.9965
448 23 10.6141 10.6066 22.7288 0.9358 0.0000 0.8133
449 23 9.0988 12.1201 -0.0096 1.1019 0.0000 1.0464
450 23 10.6115 13.6306 1.5173 0.9389 0.0000 0.8739
451 23 9.0941 12.1217 3.0239 1.2336 0.0000 0.8736
452 23 10.6097 13.6418 4.5375 1.2862 0.0000 0.9281
453 23 9.0883 12.1185 6.0586 0.9475 0.0000 0.9963
454 23 10.5891 13.6435 7.5854 1.2150 0.0000 1.0146
455 23 9.0872 12.1294 9.0850 1.2498 0.0000 1.0148
456 23 10.5928 13.6209 10.5930 1.2024 0.0000 0.9668
457 23 9.0901 12.1176 12.1136 1.1579 0.0000 0.8771
458 23 10.6075 13.6256 13.6291 0.9763 0.0000 1.0091
459 23 9.0795 12.1111 15.1531 1.2067 0.0000 0.7783
460 23 10.6010 13.6273 16.6752 1.0757 0.0000 0.9774
461 23 9.0879 12.1194 18.1783 1.0933 0.0000 1.0371
462 23 10.6073 13.6370 19.7003 0.8712 0.0000 0.8387
463 23 9.0955 12.1204 21.2004 1.2448 0.0000 0.8500
464 23 10.6088 13.6303 22.7216 0.9743 0.0000 1.0108
465 23 9.0924 15.1599 -0.0102 1.2410 0.0000 0.8514
466 23 10.5980 16.6712 1.5067 1.2356 0.0000 1.0137
467 23 9.0803 15.1653 3.0295 1.1076 0.0000 0.8170
468 23 10.6068 16.6611 4.5412 1.2186 0.0000 0.8528
469 23 9.0888 15.1614 6.0527 1.2716 0.0000 0.7862
470 23 10.6036 16.6640 7.5880 1.2343 0.0000 0.8918
471 23 9.0946 15.1536 9.0958 0.9956 0.0000 0.9262
472 23 10.5962 16.6656 10.6040 1.1741 0.0000 0.9451
473 23 9.0812 15.1351 12.1240 1.0633 0.0000 0.8442
474 23 10.6067 16.6520 13.6325 1.1446 0.0000 0.8235
475 23 9.0960 15.1471 15.1562 0.8746 0.0000 0.8378
476 23 10.6060 16.6565 16.6546 0.9370 0.0000 0.7971
477 23 9.0873 15.1351 18.1840 0.9874 0.0000 1.0022
478 23 10.5980 16.6605 19.6942 1.2424 0.0000 1.0063
479 23 9.0991 15.1600 21.2057 0.9088 0.0000 0.9301
480 23 10.6033 16.6711 22.7366 1.2848 0.0000 0.7923
481 23 9.0886 18.1709 -0.0074 1.2364 0.0000 0.8805
482 23 10.6077 19.6875 1.5205 1.2017 0.0000 1.0040
483 23 9.0980 18.1838 3.0335 1.0818 0.0000 0.8717
484 23 10.6127 19.6944 4.5522 1.0035 0.0000 0.8074
485 23 9.0822 18.1677 6.0659 0.9687 0.0000 0.8068
486 23 10.5980 19.6860 7.5688 1.2559 0.0000 1.0144
487 23 9.0977 18.1818 9.0916 1.0325 0.0000 0.9499
488 23 10.6088 19.7026 10.6025 1.2099 0.0000 1.0136
489 23 9.0950 18.1844 12.1205 0.8770 0.0000 0.9028
490 23 10.5996 19.6934 13.6340 0.9551 0.0000 0.9902
491 23 9.0792 18.1823 15.1562 0.9003 0.0000 0.9730
492 23 10.6092 19.6989 16.6548 0.9774 0.0000 1.0371
493 23 9.0905 18.1774 18.1829 0.8826 0.0000 0.9144
494 23 10.6096 19.6968 19.7023 1.0961 0.0000 0.8265
495 23 9.0816 18.1659 21.2070 1.2750 0.0000 0.9194
496 23 10.6053 19.7026 22.7299 0.9193 0.0000 0.8417
497 23 9.0867 21.2269 -0.0003 1.2211 0.0000 0.9296
498 23 10.6107 22.7335 1.5165 1.2507 0.0000 0.9586
499 23 9.1003 21.2056 3.0360 1.1508 0.0000 0.8047
500 23 10.5991 22.7160 4.5392 0.9329 0.0000 0.8060
501 23 9.0864 21.2066 6.0670 1.1097 0.0000 0.8012
502 23 10.6103 22.7195 7.5820 0.9302 0.0000 0.8035
503 23 9.0847 21.2079 9.0921 1.1102 0.0000 0.7889
504 23 10.6178 22.7246 10.6051 0.9245 0.0000 0.7958
505 23 9.0792 21.2029 12.1066 0.8963 0.0000 0.8531
506 23 10.6137 22.7190 13.6432 1.2605 0.0000 0.9840
507 23 9.0850 21.2047 15.1474 1.1718 0.0000 0.9707
508 23 10.6011 22.7199 16.6624 1.1051 0.0000 0.8496
509 23 9.0843 21.2067 18.1832 1.1517 0.0000 1.0046
510 23 10.5947 22.7301 19.6898 1.0937 0.0000 0.8503
511 23 9.0954 21.2071 21.2148 1.1318 0.0000 0.9918
512 23 10.6089 22.7260 22.7289 1.0824 0.0000 0.9302
513 23 12.1215 0.0023 0.0164 1.1008 0.0000 0.8578
514 23 13.6358 1.5238 1.4986 1.1079 0.0000 0.7791
515 23 12.1167 -0.0090 3.0254 0.9381 0.0000 0.9814
516 23 13.6437 1.5204 4.5482 0.9207 0.0000 0.8668
517 23 12.1099 0.0013 6.0639 1.2989 0.0000 0.8224
518 23 13.6446 1.5157 7.5833 0.8692 0.0000 0.9163
519 23 12.1117 0.0051 9.0955 1.0428 0.0000 0.8130
520 23 13.6382 1.5094 10.6095 0.8751 0.0000 0.8738
521 23 12.1260 -0.0051 12.1190 0.9166 0.0000 0.8711
522 23 13.6431 1.5089 13.6393 1.2486 0.0000 1.0151
523 23 12.1223 -0.0109 15.1483 1.1353 0.0000 1.0065
524 23 13.6365 1.5190 16.6660 0.9965 0.0000 1.0015
525 23 12.1214 -0.0037 18.1838 1.0979 0.0000 0.9802
526 23 13.6477 1.5077 19.6905 1.2309 0.0000 0.8941
527 23 12.1269 0.0119 21.2085 0.9237 0.0000 1.0433
528 23 13.6430 1.5108 22.7232 1.0817 0.0000 1.0113
529 23 12.1192 3.0302 -0.0079 0.8922 0.0000 1.0362
530 23 13.6374 4.5456 1.5316 0.8748 0.0000 0.8219
531 23 12.1128 3.0377 3.0324 1.0438 0.0000 0.9466
532 23 13.6354 4.5522 4.5416 1.0819 0.0000 0.9174
533 23 12.1255 3.0234 6.0566 0.8748 0.0000 0.8631
534 23 13.6374 4.5377 7.5865 1.0955 0.0000 0.8087
535 23 12.1176 3.0202 9.0960 0.9155 0.0000 1.0212
536 23 13.6479 4.5446 10.6076 1.2558 0.0000 0.9389
537 23 12.1226 3.0305 12.1307 1.2012 0.0000 0.8784
538 23 13.6320 4.5370 13.6327 1.1472 0.0000 0.9910
539 23 12.1202 3.0249 15.1456 1.1549 0.0000 0.8736
540 23 13.6339 4.5494 16.6714 0.9983 0.0000 0.9449
541 23 12.1251 3.0226 18.1768 1.2130 0.0000 0.9841
542 23 13.6343 4.5357 19.6983 1.1067 0.0000 0.9086
543 23 12.1293 3.0315 21.2185 1.1927 0.0000 0.9714
544 23 13.6310 4.5427 22.7266 1.0811 0.0000 0.8705
545 23 12.1155 6.0548 -0.0008 1.2807 0.0000 0.8774
546 23 13.6323 7.5787 1.5064 1.2826 0.0000 0.9152
547 23 12.1280 6.0631 3.0288 0.9222 0.0000 1.0111
548 23 13.6554 7.5761 4.5476 1.0008 0.0000 0.8214
549 23 12.1109 6.0676 6.0580 1.1028 0.0000 0.9338
550 23 13.6524 7.5713 7.5658 0.8863 0.0000 0.9910
551 23 12.1180 6.0468 9.0837 1.0653 0.0000 0.8997
552 23 13.6338 7.5803 10.5925 1.0759 0.0000 0.8799
553 23 12.1179 6.0585 12.1124 0.8685 0.0000 0.9245
554 23 13.6302 7.5661 13.6312 1.2791 0.0000 0.9276
555 23 12.1168 6.0623 15.1513 1.1185 0.0000 1.0444
556 23 13.6249 7.5595 16.6563 0.9196 0.0000 0.9624
557 23 12.1256 6.0524 18.1812 0.9470 0.0000 0.8729
558 23 13.6319 7.5748 19.6847 0.9003 0.0000 1.0340
559 23 12.1292 6.0707 21.2159 1.0536 0.0000 0.8752
560 23 13.6291 7.5762 22.7225 1.1185 0.0000 0.9850
561 23 12.1307 9.0933 -0.0015 0.9129 0.0000 1.0344
562 23 13.6312 10.6092 1.5189 0.9751 0.0000 0.8009
563 23 12.1212 9.0804 3.0273 1.2060 0.0000 0.9010
564 23 13.6466 10.6096 4.5317 0.9240 0.0000 0.9074
565 23 12.1229 9.0877 6.0559 1.1093 0.0000 0.8639
566 23 13.6379 10.6083 7.5735 1.2040 0.0000 1.0205
567 23 12.1255 9.0867 9.0783 1.0249 0.0000 0.9501
568 23 13.6381 10.5978 10.5979 1.2920 0.0000 0.9032
569 23 12.1156 9.0757 12.1170 1.0481 0.0000 0.8127
570 23 13.6471 10.6020 13.6334 0.9404 0.0000 0.8400
571 23 12.1163 9.0888 15.1458 1.2804 0.0000 0.8906
572 23 13.6413 10.6092 16.6639 1.1560 0.0000 0.9441
573 23 12.1307 9.0906 18.1698 1.0781 0.0000 0.9116
574 23 13.6339 10.6034 19.7040 0.9350 0.0000 0.9415
575 23 12.1271 9.0955 21.2100 1.0321 0.0000 0.8657
576 23 13.6348 10.6062 22.7405 1.1283 0.0000 1.0185
577 23 12.1215 12.1319 0.0044 1.2594 0.0000 0.9431
578 23 13.6356 13.6365 1.5250 0.9350 0.0000 0.9788
579 23 12.1252 12.1166 3.0284 1.3002 0.0000 0.9858
580 23 13.6394 13.6290 4.5501 1.2664 0.0000 0.9482
581 23 12.1225 12.1252 6.0530 1.1538 0.0000 0.8572
582 23 13.6377 13.6260 7.5763 1.2542 0.0000 0.8992
583 23 12.1105 12.1140 9.0934 1.1076 0.0000 1.0291
584 23 13.6363 13.6326 10.6038 0.9690 0.0000 0.8884
585 23 12.1110 12.1174 12.1115 1.2675 0.0000 0.8356
586 23 13.6294 13.6420 13.6449 0.9614 0.0000 0.9617
587 23 12.1185 12.1027 15.1507 1.1855 0.0000 0.8591
588 23 13.6213 13.6426 16.6723 1.0188 0.0000 0.8209
589 23 12.1341 12.1301 18.1771 0.8912 0.0000 0.9174
590 23 13.6302 13.6337 19.6978 1.1255 0.0000 0.7805
591 23 12.1182 12.1181 21.2110 0.9488 0.0000 1.0315
592 23 13.6404 13.6334 22.7287 1.0049 0.0000 0.8620
593 23 12.1268 15.1578 0.0004 1.2586 0.0000 0.7881