ITEM: TIMESTEP
0
ITEM: NUMBER OF ATOMS
864
ITEM: BOX BOUNDS pp pp pp
0.0 29.7000
0.0 29.7000
0.0 29.7000
ITEM: ATOMS id type x y z error strain stiffness
1 82 2.7879 3.5696 4.3847 284.8650 0.0000 276.8205
2 82 1.8048 -3.3171 -0.0537 232.0831 0.0000 244.3239
3 82 2.7979 2.5365 2.7709 272.0065 0.0000 272.6576
4 82 -3.3729 2.1182 0.3555 267.2567 0.0000 274.7653
5 82 2.0568 2.0767 3.5636 294.1839 0.0000 232.9457
6 82 3.3114 -0.5310 3.3442 319.9667 0.0000 238.1346
7 82 2.1477 2.8144 3.4783 330.0599 0.0000 246.7333
8 82 -4.7610 9.1265 10.4885 303.6641 0.0000 267.3205
9 82 -1.4218 -3.6284 12.1399 248.8375 0.0000 260.0204
10 82 2.9942 2.8112 7.8936 343.5081 0.0000 292.5873
11 82 1.1899 -0.9882 13.1974 255.8845 0.0000 292.6058
12 82 -4.9721 5.7490 6.9402 302.9118 0.0000 260.7388
13 82 -2.0062 0.4387 18.2621 287.6600 0.0000 225.5038
14 82 0.3949 0.6994 13.6076 303.4603 0.0000 239.1314
15 82 4.1646 0.3343 16.3077 283.8463 0.0000 292.2437
16 82 -1.3175 2.0899 16.5636 326.5232 0.0000 249.0094
17 82 -1.1993 0.0211 23.1183 342.7556 0.0000 301.0504
18 82 4.6538 1.8027 25.2189 266.0257 0.0000 284.4872
19 82 -0.1893 -4.7653 23.1743 311.2376 0.0000 253.3376
20 82 1.0600 4.9033 25.6563 297.4008 0.0000 288.8023
21 82 1.5996 2.7791 24.5311 233.8912 0.0000 263.4904
22 82 6.7828 3.1073 23.0335 320.0545 0.0000 248.9590
23 82 0.5259 -5.4313 27.5506 304.9856 0.0000 247.5413
24 82 -3.0990 -1.2444 30.9407 257.5884 0.0000 269.6669
25 82 0.8073 4.4715 -5.3869 283.2651 0.0000 233.4477
26 82 3.8127 10.5699 -0.7250 268.9100 0.0000 299.6862
27 82 2.5778 1.4510 1.6841 291.5917 0.0000 257.3840
28 82 -1.8342 2.5031 -2.3512 279.2754 0.0000 231.3708
29 82 -1.0842 -1.3953 7.8397 296.7926 0.0000 252.5740
30 82 6.9682 6.7748 5.6674 337.1418 0.0000 273.4136
31 82 4.1519 9.8075 2.5110 305.2326 0.0000 255.7815
32 82 1.7511 8.4887 6.4291 258.4706 0.0000 230.4081
33 82 -3.6457 6.2953 4.5252 277.9614 0.0000 302.7842
34 82 3.8298 5.3662 9.6538 264.5372 0.0000 268.9121
35 82 2.8665 8.5777 18.4104 329.2102 0.0000 273.2871
36 82 0.6151 10.3418 11.3708 242.6467 0.0000 255.2407
37 82 -3.7981 0.3487 20.0777 314.5444 0.0000 268.3528
38 82 -5.0408 8.6648 10.3986 265.7007 0.0000 297.4552
39 82 -0.3438 5.8114 18.7010 325.3912 0.0000 288.0643
40 82 0.6099 4.3993 19.1646 314.5432 0.0000 248.3014
41 82 1.0634 2.6896 19.6379 286.4507 0.0000 274.5078
42 82 -2.0806 7.9572 15.4181 259.9474 0.0000 231.4256
43 82 7.2031 4.7693 21.5682 241.9196 0.0000 276.6177
44 82 -2.1800 8.3488 24.8854 322.0016 0.0000 293.4858
45 82 1.8964 8.4378 19.1321 264.1979 0.0000 261.0504
46 82 -0.4919 5.5029 22.7700 299.1607 0.0000 250.2434
47 82 1.4483 0.8054 28.1423 258.9467 0.0000 275.6262
48 82 0.8629 2.6974 28.5471 343.9843 0.0000 250.7885
49 82 -2.0495 8.2185 -3.5085 303.3421 0.0000 261.4380
50 82 -1.0014 11.7924 -0.8609 340.7222 0.0000 273.4966
51 82 -0.0284 8.4001 -1.4067 253.8747 0.0000 249.8732
52 82 0.1045 13.3985 1.3325 265.3755 0.0000 252.2134
53 82 -0.2828 11.3991 7.3746 315.5721 0.0000 296.1422
54 82 1.7394 11.6613 7.2704 283.3966 0.0000 225.7492
55 82 2.6608 12.4555 5.6780 254.9635 0.0000 247.1182
56 82 -2.4590 14.1191 10.3822 235.1060 0.0000 253.1772
57 82 -1.1421 7.2152 10.3095 237.6470 0.0000 241.8560
58 82 3.3332 8.8016 10.5206 285.9462 0.0000 258.3417
59 82 -0.5907 11.6221 7.5732 278.3070 0.0000 245.4413
60 82 1.3886 14.3276 7.8379 320.0258 0.0000 247.1972
61 82 4.9788 10.2240 18.7617 323.8164 0.0000 284.7896
62 82 -2.7269 13.7594 16.6913 313.6866 0.0000 249.9106
63 82 4.5551 14.4633 14.9087 265.6568 0.0000 264.1453
64 82 -0.6580 11.7908 22.1949 344.8621 0.0000 255.6687
65 82 -1.2173 7.7165 23.7563 272.6130 0.0000 302.0023
66 82 0.5935 13.3633 24.2730 290.0560 0.0000 248.3292
67 82 2.8433 10.6205 23.2962 233.4044 0.0000 282.7111
68 82 0.6139 9.0795 24.3087 316.2086 0.0000 298.3699
69 82 4.2239 6.8776 26.4865 231.2222 0.0000 297.8384
70 82 1.0536 11.6888 21.3196 333.2398 0.0000 290.0204
71 82 -1.2568 7.2447 27.4412 232.8015 0.0000 269.5735
72 82 -5.1647 9.2800 32.1921 339.8853 0.0000 228.8574
73 82 -3.1998 12.9126 1.1408 329.5966 0.0000 286.0518
74 82 2.0544 20.5624 1.6754 321.1732 0.0000 287.4487
75 82 -0.1933 19.1761 7.1719 301.7840 0.0000 231.5995
76 82 6.7475 17.6603 1.1296 310.4341 0.0000 299.5177
77 82 -0.4051 19.7968 0.5863 323.2938 0.0000 269.1068
78 82 0.9961 13.6740 -0.6205 327.5493 0.0000 229.5045
79 82 5.7319 11.7706 8.8169 277.9757 0.0000 249.8638
80 82 -1.4194 20.1624 6.8565 325.3734 0.0000 247.7179
81 82 1.7304 15.5914 12.8731 289.2458 0.0000 250.9979
82 82 2.2373 19.6592 12.2406 312.1981 0.0000 282.0644
83 82 3.8647 17.9832 15.9754 251.8778 0.0000 299.8717
84 82 -0.8026 11.6822 7.6000 273.1331 0.0000 256.2860
85 82 0.1761 11.5145 19.0667 332.4512 0.0000 237.2569
86 82 3.3882 15.0158 20.3996 309.5388 0.0000 238.2872
87 82 3.1155 14.5138 18.8257 241.0783 0.0000 283.9266
88 82 -3.6422 21.1993 20.5615 336.7386 0.0000 233.6345
89 82 2.7879 8.8581 21.1419 280.3243 0.0000 270.5240
90 82 -1.3346 21.4681 21.7525 256.3728 0.0000 238.7014
91 82 6.4513 18.6501 18.6838 255.2573 0.0000 290.7931
92 82 0.0055 17.8290 23.1905 325.3048 0.0000 287.4726
93 82 -4.2235 14.0969 24.8181 243.0660 0.0000 273.0458
94 82 7.6698 20.9900 24.6166 279.6647 0.0000 286.6340
95 82 3.6143 12.9113 22.8307 313.4087 0.0000 240.3788
96 82 -3.4787 13.9889 26.2084 276.2985 0.0000 255.7948
97 82 -0.0491 21.8566 3.1560 253.4671 0.0000 296.7811
98 82 0.6130 21.9401 1.9494 250.5902 0.0000 235.0028
99 82 -0.7224 21.0706 -1.0006 286.7525 0.0000 233.0680
100 82 0.0624 20.5756 6.8992 295.5586 0.0000 267.1431
101 82 2.8178 17.4955 4.7460 345.6701 0.0000 271.0346
102 82 8.7981 17.7318 3.8375 255.3957 0.0000 285.8930
103 82 0.3263 20.1563 10.6691 297.3968 0.0000 236.7404
104 82 0.3096 23.7964 8.2358 261.6789 0.0000 276.0321
105 82 4.5859 13.1452 11.3796 263.3827 0.0000 237.1465
106 82 -3.2759 24.3876 8.8922 300.3763 0.0000 297.4609
107 82 2.2659 18.9655 16.9148 280.3094 0.0000 285.0958
108 82 4.7931 24.5960 13.0305 257.2770 0.0000 285.4235
109 82 -0.1371 24.4009 16.9552 330.8268 0.0000 282.5422
110 82 1.9036 24.9278 19.0139 340.0064 0.0000 293.7806
111 82 4.1001 24.0337 15.3049 252.8834 0.0000 296.0159
112 82 -4.9708 22.8749 18.7397 278.8181 0.0000 237.4407
113 82 -3.2427 18.9695 18.9785 297.9011 0.0000 275.5649
114 82 0.7614 20.3626 19.1371 234.5361 0.0000 248.7531
115 82 1.4395 13.2404 23.0392 278.0409 0.0000 249.1194
116 82 4.2700 20.9505 23.1022 339.9187 0.0000 280.8601
117 82 2.3002 20.0317 26.3895 232.0576 0.0000 263.5775
118 82 4.1181 23.3725 25.4730 261.9520 0.0000 245.4713
119 82 1.9449 17.4312 26.1704 263.7991 0.0000 298.7719
120 82 0.5297 23.3792 29.1141 284.4601 0.0000 233.4631
121 82 0.4157 20.7939 -2.4190 272.3774 0.0000 280.0379
122 82 -0.4065 28.5163 -0.5240 316.5531 0.0000 288.3187
123 82 6.0297 26.6203 -0.9326 277.6595 0.0000 240.7428
124 82 -0.2152 28.2067 2.3768 324.6251 0.0000 280.9153
125 82 0.3087 20.7401 7.0844 329.4386 0.0000 292.0727
126 82 2.5796 26.8582 7.1466 282.1285 0.0000 299.9187
127 82 -0.2444 25.8018 1.8479 242.7314 0.0000 251.7410
128 82 -0.5772 25.3415 10.8449 266.4169 0.0000 294.9585
129 82 4.2056 23.6268 14.6221 331.5928 0.0000 299.0166
130 82 1.0920 24.4222 8.8180 277.8859 0.0000 285.1461
131 82 11.0216 25.5023 16.4229 291.5118 0.0000 267.9977
132 82 -0.5334 28.0698 12.6980 314.4278 0.0000 289.0939
133 82 3.4696 24.3987 20.7866 316.5769 0.0000 270.4450
134 82 8.1606 31.4766 12.6898 296.7493 0.0000 256.5481
135 82 4.5930 32.5068 15.3400 240.0242 0.0000 237.3111
136 82 -1.4959 27.2284 16.9479 248.1666 0.0000 293.5576
137 82 -2.4992 21.5776 21.0082 267.8310 0.0000 274.5959
138 82 0.6862 27.0905 18.1488 321.0338 0.0000 245.0050
139 82 2.3302 25.4185 19.7453 273.7942 0.0000 264.5712
140 82 -0.3106 27.7389 23.0811 277.5846 0.0000 285.9724
141 82 -3.5550 28.9397 27.1217 294.4499 0.0000 228.0894
142 82 2.7419 24.4957 23.6416 310.8642 0.0000 237.3861
143 82 2.6889 25.8408 27.2894 331.6673 0.0000 234.7170
144 82 3.3498 26.8477 29.2170 238.4227 0.0000 288.5193
145 82 2.4564 -1.6265 1.0206 325.7864 0.0000 246.0376
146 82 11.2601 2.5886 -1.8585 307.6207 0.0000 299.8710
147 82 4.5990 -0.5133 2.4177 290.7981 0.0000 273.6410
148 82 -4.6504 -0.3216 3.6357 303.8240 0.0000 225.0889
149 82 5.3606 -3.4151 1.4181 326.2180 0.0000 230.9070
150 82 10.4357 4.6271 2.3076 314.6940 0.0000 243.3741
151 82 12.7438 -5.3584 5.9561 290.3657 0.0000 250.9260
152 82 5.7876 2.1307 5.3725 315.2088 0.0000 269.6274
153 82 2.4926 -1.2315 10.6560 286.4698 0.0000 232.6973
154 82 5.1096 4.6638 10.6474 344.5372 0.0000 259.6449
155 82 1.1287 -2.2638 17.6758 280.4238 0.0000 272.7952
156 82 2.4115 -1.9951 12.1373 314.5513 0.0000 260.2379
157 82 9.0651 4.2235 12.2893 264.6412 0.0000 229.5653
158 82 5.5049 -2.0592 11.2594 281.2649 0.0000 281.5942
159 82 4.7865 3.6455 19.2779 308.8255 0.0000 291.4207
160 82 3.8573 4.0519 15.0437 299.6758 0.0000 246.4863
161 82 7.5245 1.2115 18.3006 327.6069 0.0000 225.6429
162 82 8.7706 1.1689 20.2071 279.3426 0.0000 295.1977
163 82 11.5872 2.1386 21.9993 245.4889 0.0000 259.8804
164 82 8.2396 0.2477 21.9609 340.5784 0.0000 301.8068
165 82 7.7806 -3.6188 23.1184 326.6529 0.0000 301.2722
166 82 2.4338 0.5920 20.5987 234.1949 0.0000 283.9043
167 82 5.9386 1.0240 25.1552 257.0589 0.0000 284.5746
168 82 0.9757 4.1346 26.1614 264.0903 0.0000 258.8497
169 82 8.1378 7.8450 -1.0376 344.5203 0.0000 286.6237
170 82 4.9704 6.8515 2.6997 340.3690 0.0000 253.4689
171 82 11.5735 4.5633 1.3485 272.5160 0.0000 286.8396
172 82 -1.1262 6.8546 4.5032 247.2366 0.0000 231.0410
173 82 6.5215 3.1473 1.5071 326.8253 0.0000 276.5441
174 82 7.1278 10.7061 9.3684 266.0951 0.0000 295.3090
175 82 2.8106 10.7819 8.3084 265.1572 0.0000 273.0774
176 82 -1.0217 8.9881 2.6974 298.5993 0.0000 240.7044
177 82 -1.3578 6.5975 11.0947 278.1987 0.0000 260.1233
178 82 8.1070 5.9716 8.9196 251.3302 0.0000 234.9866
179 82 10.3617 5.9474 13.5362 242.8698 0.0000 240.7144
180 82 2.2521 6.0904 12.3088 310.8382 0.0000 243.2431
181 82 9.3913 4.6013 15.9654 290.8327 0.0000 258.4747
182 82 7.4749 11.1550 12.4797 261.9726 0.0000 284.6613
183 82 10.3497 6.9749 22.5201 247.5687 0.0000 287.7887
184 82 7.8254 7.2226 15.4950 339.2495 0.0000 290.3975
185 82 8.3072 1.8479 15.8732 237.7120 0.0000 244.4808
186 82 4.8210 5.7769 22.6157 263.2701 0.0000 273.0266
187 82 8.7195 4.5591 24.7383 331.7790 0.0000 252.6502
188 82 -3.6690 4.4663 21.4662 278.8487 0.0000 224.4268
189 82 5.2679 6.6726 23.8729 242.1118 0.0000 288.9946
190 82 6.7291 9.2117 20.5971 333.4263 0.0000 274.0719
191 82 8.6615 9.8187 28.9708 325.4156 0.0000 301.1601
192 82 3.9677 4.6711 29.8576 319.8545 0.0000 262.0383
193 82 6.9374 12.2078 1.9778 244.0092 0.0000 302.5143
194 82 3.8695 14.4565 0.6132 251.1703 0.0000 247.0284
195 82 7.7325 9.7414 2.5405 280.7888 0.0000 250.8936
196 82 5.5663 13.1820 3.5043 298.9963 0.0000 300.1258
197 82 3.8125 3.8245 7.3643 246.4527 0.0000 235.1159
198 82 5.4891 12.9698 7.9055 280.6231 0.0000 274.0224
199 82 5.7242 9.5314 7.5789 309.6583 0.0000 295.9900
200 82 4.9794 16.4834 9.1948 323.5843 0.0000 253.0727
201 82 0.1376 11.0588 7.7117 276.5271 0.0000 298.1198
202 82 6.7631 13.3835 10.1455 279.2224 0.0000 231.1096
203 82 7.2284 6.1206 11.6018 272.2002 0.0000 230.7765
204 82 5.2584 12.9988 18.9587 324.8664 0.0000 226.4151
205 82 4.4012 5.9786 15.5746 282.5048 0.0000 294.6033
206 82 8.9794 9.6091 11.9369 297.8200 0.0000 232.2766
207 82 7.0442 10.2712 17.7190 263.6171 0.0000 244.6607
208 82 2.9902 12.7152 15.7851 274.7114 0.0000 264.3355
209 82 2.8188 9.5170 22.1981 319.8197 0.0000 246.4783
210 82 8.8253 6.1857 23.5949 248.9824 0.0000 243.4565
211 82 2.2583 10.8437 17.4871 332.1672 0.0000 292.8971
212 82 4.5951 10.4274 27.0721 237.2506 0.0000 264.3477
213 82 7.0124 7.1948 23.5873 239.4143 0.0000 287.6980
214 82 9.8215 11.4840 26.7796 249.9523 0.0000 276.1156
215 82 9.5887 7.7264 23.9260 243.2365 0.0000 262.9242
216 82 7.5038 8.3396 30.9353 321.7832 0.0000 243.6606
217 82 1.9224 16.4559 -7.8859 312.6834 0.0000 261.9896
218 82 10.1096 16.2365 5.2804 343.9572 0.0000 278.2144
219 82 8.5794 20.3587 -1.1541 317.8111 0.0000 287.2699
220 82 6.3280 20.3587 4.1190 317.4819 0.0000 249.7332
221 82 4.0038 10.9186 4.2628 300.2922 0.0000 266.8858
222 82 5.4484 15.6922 4.5410 345.8237 0.0000 243.0115
223 82 10.8535 16.4990 10.9494 310.4413 0.0000 261.0791
224 82 6.0524 15.9134 5.3407 237.0059 0.0000 281.3826
225 82 2.9157 13.2731 8.6939 320.3671 0.0000 287.7971
226 82 4.7046 13.3999 12.6382 342.0862 0.0000 265.2269
227 82 8.3335 14.4599 13.0444 300.2835 0.0000 285.2628
228 82 10.3146 14.7424 16.5185 313.3064 0.0000 234.0956
229 82 5.1193 18.8151 12.9719 237.0507 0.0000 288.5276
230 82 7.7150 16.6558 13.9013 327.8793 0.0000 286.8318
231 82 13.9216 14.9310 17.2388 239.3242 0.0000 274.2302
232 82 7.0486 10.5458 15.3889 305.9488 0.0000 266.2929
233 82 2.9483 18.6695 23.8689 326.3343 0.0000 248.9795
234 82 3.3153 18.8515 14.3362 289.0442 0.0000 302.1843
235 82 8.1333 12.6788 20.6440 334.4349 0.0000 229.8290
236 82 0.3616 12.9775 24.5346 242.1565 0.0000 268.7096
237 82 8.6360 15.8877 20.3748 280.3468 0.0000 250.0101
238 82 9.3111 14.2666 26.3878 269.5985 0.0000 293.7382
239 82 8.5995 15.8181 26.6213 280.1753 0.0000 258.2207
240 82 1.5347 20.2865 22.5015 235.8075 0.0000 257.2118
241 82 -0.0978 20.9601 1.8691 250.1310 0.0000 287.2039
242 82 7.0835 22.6415 3.3409 346.4275 0.0000 292.5272
243 82 3.1258 18.5387 5.1674 322.7653 0.0000 286.8411
244 82 1.9003 18.1127 3.5262 237.8586 0.0000 286.0782
245 82 2.6246 18.7834 11.9527 256.9723 0.0000 284.7156
246 82 5.9820 19.3827 5.0059 272.7289 0.0000 244.2296
247 82 10.7149 20.3905 8.4814 330.8962 0.0000 257.6029
248 82 5.8936 17.3975 5.5248 263.9206 0.0000 255.8194
249 82 4.5838 22.9252 8.2228 277.8110 0.0000 274.9420
250 82 10.9366 19.1133 13.0565 313.3784 0.0000 245.9741
251 82 7.4652 19.7304 12.0101 321.4281 0.0000 277.5125
252 82 5.4605 21.8148 16.0160 338.7395 0.0000 230.8562
253 82 1.3884 18.6332 13.7519 259.5673 0.0000 272.7937
254 82 10.2888 23.7960 12.7076 234.9632 0.0000 226.1475
255 82 5.3530 21.6194 19.8726 245.5070 0.0000 236.9045
256 82 7.3464 21.7766 17.2792 232.8542 0.0000 293.8000
257 82 7.7659 14.2110 16.5766 283.8258 0.0000 295.2742
258 82 3.9905 21.9348 17.9577 308.5261 0.0000 274.0922
259 82 10.1192 17.0585 21.4671 257.9309 0.0000 225.9467
260 82 1.1439 24.5878 21.6792 340.9015 0.0000 292.8997
261 82 4.8201 19.3874 26.3333 330.2035 0.0000 284.8502
262 82 5.7428 23.2910 24.4448 345.6027 0.0000 248.3312
263 82 7.0506 18.6852 27.3377 261.8991 0.0000 263.8680
264 82 7.4887 19.1792 23.8629 340.8804 0.0000 279.0319
265 82 4.3582 21.2025 2.2009 259.1208 0.0000 243.5516
266 82 6.6534 28.6520 -1.2316 264.3883 0.0000 251.3337
267 82 3.6843 29.1856 1.1558 261.8903 0.0000 254.0455
268 82 4.7530 27.5093 3.4733 336.7049 0.0000 302.1669
269 82 7.5092 25.3679 5.5471 261.8451 0.0000 226.8672
270 82 5.2934 29.3092 6.2359 259.9972 0.0000 290.3705
271 82 8.3422 26.5102 10.8306 282.0832 0.0000 252.0298
272 82 6.8640 32.0656 6.8650 321.3463 0.0000 239.1726
273 82 0.1973 28.4417 11.0564 313.3099 0.0000 244.2277
274 82 6.6432 28.0237 5.7466 280.8717 0.0000 248.2897
275 82 7.8379 25.7785 16.4593 301.1646 0.0000 240.6287
276 82 7.6437 31.7996 10.6646 299.2975 0.0000 253.1519
277 82 7.0359 26.6612 18.8297 236.2772 0.0000 280.9182
278 82 9.0521 24.5794 12.7613 267.6966 0.0000 289.1045
279 82 6.9633 26.8651 15.0846 342.2720 0.0000 280.4068
280 82 -0.9007 28.2951 17.0877 342.6988 0.0000 302.0655
281 82 -0.7751 24.3870 24.6800 281.1724 0.0000 256.8727
282 82 5.8029 26.5004 22.5819 285.8070 0.0000 247.6398
283 82 12.1495 22.2681 19.6257 242.2587 0.0000 266.7518
284 82 1.8516 27.6762 18.6680 234.1172 0.0000 292.7235
285 82 4.3687 24.1909 20.0771 318.9981 0.0000 274.8605
286 82 7.7205 30.6992 23.5898 292.4140 0.0000 250.2146
287 82 1.6336 28.2846 31.7046 308.6827 0.0000 253.8480
288 82 3.9905 24.7806 30.3960 344.0096 0.0000 269.9364
289 82 6.4135 -1.6511 2.3427 312.9016 0.0000 263.5343
290 82 13.9911 -0.2187 1.3934 254.2859 0.0000 302.7636
291 82 5.5855 2.4769 4.0269 232.2464 0.0000 262.4395
292 82 13.2768 1.6608 3.2845 292.2462 0.0000 251.8380
293 82 7.2669 -1.8738 6.5524 283.0343 0.0000 240.8563
294 82 13.1950 -0.6499 1.9304 306.6168 0.0000 229.2012
295 82 19.4494 1.4769 8.1438 342.8961 0.0000 295.6554
296 82 10.1786 2.9695 2.2816 326.1794 0.0000 252.8880
297 82 11.3312 4.1027 12.2092 251.2213 0.0000 302.6164
298 82 13.6477 0.4558 7.8160 276.8957 0.0000 278.9604
299 82 11.7766 5.0432 13.1526 293.7909 0.0000 229.4757
300 82 9.1401 1.9074 9.9446 289.0061 0.0000 237.4690
301 82 7.2035 -1.6851 16.7271 278.7117 0.0000 271.5896
302 82 4.5648 -1.2487 10.7237 236.1872 0.0000 276.1140
303 82 7.0520 -0.5625 18.4267 300.2417 0.0000 268.5140
304 82 2.8769 0.5727 19.1557 279.4344 0.0000 270.6643
305 82 13.7464 1.8589 20.1050 299.3996 0.0000 236.1390
306 82 12.7272 1.7302 22.6479 287.6065 0.0000 228.1072
307 82 15.1133 -0.1910 22.1684 290.1418 0.0000 275.6979
308 82 8.7236 6.8205 25.9759 285.6705 0.0000 275.6012
309 82 7.6937 -2.6582 25.2660 283.8872 0.0000 261.6907
310 82 11.5568 -0.6910 25.0375 251.2893 0.0000 283.1032
311 82 11.6504 0.7910 27.5786 254.6272 0.0000 226.2644
312 82 6.7867 1.3052 27.2351 305.7603 0.0000 236.9321
313 82 9.7864 0.2287 2.7132 231.4900 0.0000 252.7864
314 82 14.3344 3.9814 1.3550 309.3073 0.0000 294.4517
315 82 9.3121 2.6819 3.4664 240.7931 0.0000 285.0533
316 82 12.1007 6.2735 -0.3886 345.8333 0.0000 280.4823
317 82 10.9983 4.3237 8.8690 279.4576 0.0000 248.5922
318 82 11.7385 0.6757 6.7801 276.0304 0.0000 264.0495
319 82 12.6189 -0.8349 2.0182 303.5704 0.0000 242.1169
320 82 5.6822 10.2232 4.2949 345.3071 0.0000 259.0010
321 82 11.8030 4.3707 9.6060 333.6750 0.0000 290.6400
322 82 11.0886 5.1831 12.9104 256.7222 0.0000 247.0389
323 82 12.3747 7.8413 11.9847 265.1130 0.0000 277.9502
324 82 6.3209 8.2334 15.1345 235.6038 0.0000 277.2007
325 82 4.9519 7.7042 13.5578 330.8954 0.0000 225.9488
326 82 12.9780 7.2050 16.0726 268.4872 0.0000 297.9732
327 82 12.9519 10.1725 20.5819 329.5396 0.0000 253.2040
328 82 5.4890 7.5576 20.5408 311.5237 0.0000 273.9299
329 82 9.6395 4.7117 22.1925 293.9298 0.0000 269.6144
330 82 12.5563 10.6237 22.9443 278.8655 0.0000 248.5963
331 82 13.4516 3.6893 19.2580 328.1553 0.0000 229.1870
332 82 9.2620 6.9212 29.7458 247.6204 0.0000 243.1693
333 82 6.9669 4.6900 25.3067 320.2755 0.0000 273.7637
334 82 11.0461 6.8309 26.1479 331.7302 0.0000 266.0401
335 82 14.1846 11.3593 29.4290 320.3424 0.0000 256.7530
336 82 4.2992 8.7523 27.4656 326.6372 0.0000 274.3701
337 82 10.6055 10.8495 4.4072 268.9556 0.0000 299.0223
338 82 13.5692 8.2929 -0.5429 323.0936 0.0000 231.2933
339 82 9.5090 8.1981 5.2980 245.4872 0.0000 244.7346
340 82 11.6739 14.8821 4.7733 312.8807 0.0000 253.7929
341 82 13.4238 3.9077 5.2460 269.1734 0.0000 239.8463
342 82 8.4950 14.1987 3.7637 237.6036 0.0000 256.0186
343 82 17.1334 10.6890 5.8301 264.3137 0.0000 257.5807
344 82 6.4430 11.2899 4.6691 327.5527 0.0000 282.7621
345 82 5.9014 9.1301 10.3961 256.7866 0.0000 243.2928
346 82 10.1993 16.2394 13.2242 335.5510 0.0000 237.9167
347 82 11.6546 10.3643 10.8561 234.1210 0.0000 237.9205
348 82 6.4884 10.5841 13.0256 268.0087 0.0000 236.3625
349 82 3.1360 9.3735 13.8638 271.5115 0.0000 230.1716
350 82 7.0677 11.7793 13.6545 241.7040 0.0000 269.3797
351 82 9.7101 13.4445 18.8695 309.9555 0.0000 250.1949
352 82 10.4392 10.2745 21.8611 257.1107 0.0000 268.7328
353 82 7.0776 8.5474 19.9034 239.9652 0.0000 254.0436
354 82 13.0579 11.4110 23.5050 325.5843 0.0000 235.4524
355 82 11.6211 8.2079 19.4477 248.0714 0.0000 263.7697
356 82 6.4115 6.7469 22.4101 331.0988 0.0000 247.0781
357 82 8.4477 11.1069 21.5572 276.7244 0.0000 241.0901
358 82 17.6318 18.4021 27.3133 257.6546 0.0000 301.6065
359 82 8.9191 15.7470 30.4274 263.0006 0.0000 232.6965
360 82 11.0535 17.1731 28.6428 268.6317 0.0000 240.0511
361 82 11.2728 19.5719 -2.2310 344.2854 0.0000 302.5715
362 82 7.9716 19.8793 -2.5624 312.7302 0.0000 224.1795
363 82 13.3115 17.3186 -0.5172 251.2676 0.0000 291.5500
364 82 7.6452 14.8506 2.8504 289.3684 0.0000 276.4646
365 82 9.8405 15.7640 0.8105 326.0577 0.0000 282.0135
366 82 13.2435 20.0057 2.5976 260.0555 0.0000 269.6950
367 82 12.9382 16.8752 4.6733 245.2467 0.0000 280.3900
368 82 12.3815 13.2758 9.2448 332.4299 0.0000 254.3845
369 82 11.4967 14.2670 6.6714 251.5596 0.0000 264.1363
370 82 15.2317 16.3797 10.6071 231.8607 0.0000 247.6147
371 82 13.9861 17.1617 15.2291 256.0427 0.0000 288.2653
372 82 12.8193 16.1137 11.4320 249.0831 0.0000 301.2140
373 82 7.8815 13.4128 15.3487 336.5788 0.0000 224.0402
374 82 13.6938 17.2672 14.8904 273.3562 0.0000 233.8857
375 82 11.3054 13.6670 16.3036 318.0379 0.0000 245.3206
376 82 7.0460 18.1264 16.7182 343.7557 0.0000 228.0704
377 82 10.9797 19.2229 14.2194 310.3031 0.0000 225.8448
378 82 14.8707 16.3759 17.5800 232.7301 0.0000 290.7307
379 82 10.5528 12.4790 23.0274 321.7682 0.0000 262.4520
380 82 7.5058 14.3285 22.6288 317.6780 0.0000 283.3716
381 82 5.7273 17.6495 24.0818 252.1373 0.0000 224.1694
382 82 12.3592 21.0509 22.7436 316.4909 0.0000 269.2759
383 82 6.7872 16.7139 25.5183 279.3081 0.0000 276.9963
384 82 10.4237 21.8601 28.2717 277.8919 0.0000 281.3842
385 82 13.0915 21.4461 3.4725 257.1465 0.0000 233.1595
386 82 14.4644 22.7802 1.4271 325.9822 0.0000 285.4980
387 82 12.1972 18.4714 4.0893 275.5339 0.0000 282.3255
388 82 12.7691 20.5726 2.8711 277.1054 0.0000 280.4105
389 82 6.6876 22.5690 -0.4752 232.2706 0.0000 261.0500
390 82 13.4456 19.3542 2.8332 341.9754 0.0000 296.6267
391 82 13.6425 18.2897 9.3974 272.7753 0.0000 275.2097
392 82 13.0706 23.0269 8.5266 266.5205 0.0000 237.6193
393 82 11.2847 14.1740 13.8470 277.9308 0.0000 267.7468
394 82 13.3081 25.1209 7.1225 254.6295 0.0000 268.7674
395 82 16.3133 22.8988 12.8454 246.6759 0.0000 239.9910
396 82 9.7706 21.9347 9.1083 280.5611 0.0000 246.8471
397 82 10.2173 22.7115 13.9706 265.5551 0.0000 226.6545
398 82 14.6931 17.8714 19.8020 331.6525 0.0000 225.9970
399 82 15.1354 21.2256 18.9825 307.4900 0.0000 232.2608
400 82 12.8180 21.7655 17.9840 241.1449 0.0000 238.1130
401 82 8.3640 19.2997 16.9309 272.1603 0.0000 287.9987
402 82 15.3259 22.3037 21.8372 321.7551 0.0000 301.7194
403 82 11.8760 19.7494 18.9446 343.2643 0.0000 227.5084
404 82 12.9924 19.0967 23.3532 238.7240 0.0000 299.4376
405 82 12.1666 23.4576 20.1858 299.4503 0.0000 286.1266
406 82 10.1367 22.1224 23.7123 306.4397 0.0000 283.2660
407 82 11.9082 20.3084 28.8216 309.2359 0.0000 266.8164
408 82 9.6675 22.6770 24.2072 324.9242 0.0000 250.2991
409 82 14.0588 25.5077 -3.8918 235.7106 0.0000 297.1133
410 82 15.4353 25.8532 0.5661 250.0078 0.0000 254.9827
411 82 14.6448 22.7252 4.9585 254.6059 0.0000 275.4440
412 82 15.5571 25.2407 3.3658 311.2100 0.0000 292.7764
413 82 7.1807 27.5369 2.5276 280.9442 0.0000 246.7996
414 82 9.4870 27.1765 3.9598 269.3974 0.0000 275.9776
415 82 7.7135 25.3144 4.3632 328.0529 0.0000 236.5624
416 82 7.6708 27.6140 8.1908 242.7805 0.0000 293.0072
417 82 6.6094 21.3106 9.2944 249.8883 0.0000 237.0914
418 82 9.1072 29.5999 9.3365 251.3258 0.0000 292.1392
419 82 12.5813 21.6461 11.9149 241.9100 0.0000 281.6283
420 82 7.4717 25.5293 14.8207 327.2132 0.0000 299.1709
421 82 8.9573 19.8678 18.0703 315.2120 0.0000 270.4911
422 82 9.8298 30.2872 17.9918 343.7701 0.0000 249.7897
423 82 6.1489 21.3649 11.8833 261.6249 0.0000 272.7584
424 82 10.4781 23.7454 16.5668 309.1831 0.0000 250.9918
425 82 5.0796 23.1205 15.4400 251.8269 0.0000 253.9964
426 82 8.7973 27.0293 21.7807 260.5733 0.0000 285.6840
427 82 10.3900 21.7815 23.8651 236.0065 0.0000 264.7550
428 82 11.1967 27.9784 23.7470 254.1145 0.0000 287.7532
429 82 11.7813 24.0265 21.6862 322.5084 0.0000 299.5522
430 82 8.7186 32.8645 24.2588 288.1562 0.0000 256.0256
431 82 12.1772 24.5103 25.8312 330.8666 0.0000 248.8524
432 82 6.9725 30.0933 30.6522 335.8269 0.0000 281.6539
433 82 16.8130 -1.0969 1.2815 297.1505 0.0000 273.0919
434 82 20.5278 3.4865 -3.8327 307.6949 0.0000 233.6613
435 82 18.3696 1.4708 0.9513 271.2988 0.0000 227.1818
436 82 12.0925 1.4234 0.7710 295.6032 0.0000 293.3152
437 82 16.7580 -2.6443 6.1396 317.1376 0.0000 277.4818
438 82 17.5720 6.5947 8.5837 316.8978 0.0000 255.6357
439 82 21.9508 -2.3641 8.4163 258.1501 0.0000 278.5574
440 82 6.2357 3.6798 11.6436 299.6901 0.0000 255.7308
441 82 15.8634 1.9529 15.0839 334.8422 0.0000 292.5331
442 82 11.7800 -0.6168 7.8261 232.1706 0.0000 299.9851
443 82 22.0780 0.0761 14.9223 242.2349 0.0000 267.4160
444 82 14.4339 2.3064 13.3241 330.9306 0.0000 238.8716
445 82 14.7897 -4.4459 14.0791 275.8992 0.0000 257.6974
446 82 21.9296 -0.1969 10.3122 289.1224 0.0000 296.7561
447 82 19.6399 2.4663 13.9624 239.7839 0.0000 231.5593
448 82 16.7465 0.4550 21.1834 338.5294 0.0000 254.8988
449 82 11.2885 1.8618 19.9659 296.5119 0.0000 245.5957
450 82 17.6719 2.1302 21.0643 236.0379 0.0000 264.2118
451 82 17.5998 -3.2236 21.3944 338.8893 0.0000 262.3402
452 82 12.2721 2.2011 20.9943 285.0045 0.0000 295.1706
453 82 10.0745 0.4962 22.2009 272.0584 0.0000 302.1569
454 82 13.3158 1.0019 25.9683 270.9363 0.0000 277.0033
455 82 17.3664 -5.9495 23.5485 273.0291 0.0000 283.0641
456 82 16.3793 5.3726 23.6303 324.8633 0.0000 261.0580
457 82 13.5227 2.8515 1.6773 328.9422 0.0000 233.8871
458 82 12.2136 8.0900 -0.8444 322.9283 0.0000 279.9113
459 82 19.9408 3.1501 6.7740 276.4258 0.0000 239.7741
460 82 19.5082 7.1366 3.8013 332.2492 0.0000 242.8703
461 82 10.8112 3.0375 4.4836 270.2176 0.0000 265.0583
462 82 17.8970 6.2716 6.9603 244.0644 0.0000 241.7241
463 82 18.2033 3.5386 12.0593 282.4309 0.0000 293.5186
464 82 13.6507 4.2823 6.3666 261.5564 0.0000 288.8734
465 82 13.7853 9.0979 5.6309 259.6440 0.0000 243.9535
466 82 18.3204 8.0237 9.1115 275.6057 0.0000 253.8115
467 82 16.9514 4.8865 10.2070 273.5498 0.0000 285.7965
468 82 16.5188 8.7745 15.8069 284.2724 0.0000 278.0070
469 82 13.2800 5.1590 19.1310 318.1413 0.0000 253.4721
470 82 21.3105 9.8927 14.0676 231.7660 0.0000 228.0184
471 82 22.2471 0.5975 18.9309 269.8982 0.0000 224.5789
472 82 12.7490 8.6367 21.1680 236.3494 0.0000 261.4214
473 82 19.0830 6.4872 20.6090 231.5411 0.0000 229.1579
474 82 16.8767 10.7966 19.7463 315.9680 0.0000 263.8827
475 82 11.3357 8.3148 20.9710 342.0876 0.0000 276.5134
476 82 15.4668 6.1186 21.7470 314.7057 0.0000 235.4237
477 82 12.2952 6.3659 24.1864 338.8170 0.0000 245.7563
478 82 14.9323 8.8902 23.4940 241.1624 0.0000 254.3569
479 82 14.5511 8.4369 25.7877 270.1123 0.0000 231.8702
480 82 15.3638 6.9210 32.6847 293.1585 0.0000 296.9511
481 82 15.3817 10.9619 -5.4205 275.4914 0.0000 239.9128
482 82 14.5911 12.4954 -0.8961 265.1081 0.0000 299.4407
483 82 26.1203 8.9337 2.1435 303.0336 0.0000 295.6432
484 82 11.8495 11.0360 2.9860 242.5694 0.0000 290.3640
485 82 22.4064 9.3782 3.5253 317.2983 0.0000 251.6321
486 82 14.7085 15.4993 2.1930 247.1883 0.0000 244.3193
487 82 19.0958 10.6266 7.5260 286.1855 0.0000 286.6578
488 82 13.2684 8.7946 8.9491 332.3456 0.0000 229.7299
489 82 12.2485 20.3481 8.6492 338.8446 0.0000 264.0885
490 82 12.7625 9.6009 19.0392 240.8006 0.0000 231.7357
491 82 19.8670 13.6883 16.9719 305.3912 0.0000 260.2406
492 82 13.9615 10.6997 15.3293 299.8490 0.0000 226.8278
493 82 16.2406 6.5022 15.0060 266.2086 0.0000 285.8249
494 82 17.4779 11.0783 14.1570 308.1563 0.0000 255.8237
495 82 19.0490 11.8063 21.6152 277.2218 0.0000 272.5032
496 82 11.0487 10.8137 14.2170 264.2064 0.0000 255.7810
497 82 12.0913 5.0713 18.8135 277.5752 0.0000 250.2274
498 82 22.1362 11.4384 19.1360 269.3696 0.0000 248.2512
499 82 16.8852 10.2871 24.6956 258.0473 0.0000 288.7245
500 82 19.4902 15.3222 19.8664 304.3908 0.0000 271.4406
501 82 14.5049 15.3140 27.9395 334.8027 0.0000 283.7100
502 82 17.3117 11.8766 20.3908 270.3094 0.0000 300.1422
503 82 20.0463 8.9079 27.6672 240.4237 0.0000 268.8442
504 82 15.4459 10.3416 30.0325 242.4447 0.0000 259.2501
505 82 16.9737 10.7671 -0.7547 337.1983 0.0000 289.9295
506 82 20.5338 14.9150 2.4560 238.9843 0.0000 243.1706
507 82 18.9440 11.6854 2.0754 268.3693 0.0000 285.2908
508 82 20.2443 16.9689 -2.5872 309.7380 0.0000 258.5392
509 82 11.8422 14.3328 6.9529 302.6601 0.0000 289.3938
510 82 16.4379 19.2700 2.2428 303.1404 0.0000 265.7531
511 82 19.5706 17.2533 4.1316 273.6061 0.0000 263.2773
512 82 14.2771 16.0700 10.8777 307.1430 0.0000 301.1064
513 82 13.1735 13.8291 10.9314 314.6454 0.0000 260.3280
514 82 22.8350 20.4913 12.7450 286.5831 0.0000 227.1169
515 82 16.0853 17.2388 14.2166 319.8891 0.0000 293.2695
516 82 7.8403 16.8262 12.1893 235.9871 0.0000 302.6138
517 82 15.2373 10.8102 10.4041 300.6016 0.0000 296.9383
518 82 16.5128 17.7545 9.2452 272.7940 0.0000 272.2388
519 82 16.2810 14.7901 19.7388 337.1789 0.0000 244.6840
520 82 13.6387 16.5661 13.5559 297.2180 0.0000 229.0557
521 82 12.4637 10.8327 22.9899 260.1766 0.0000 225.9548
522 82 15.9950 13.5501 17.4996 291.1158 0.0000 281.1107
523 82 20.1582 12.1466 20.0640 339.8857 0.0000 264.1026
524 82 17.7170 20.8406 25.0376 298.7504 0.0000 253.8164
525 82 16.1300 12.0224 22.4499 302.9590 0.0000 260.9195
526 82 19.9098 23.5015 24.6085 292.2958 0.0000 225.3909
527 82 13.5085 12.4805 26.7488 254.9830 0.0000 299.0904
528 82 15.9259 18.2971 33.1939 267.0771 0.0000 274.6391
529 82 13.8941 15.1819 3.4801 252.3109 0.0000 290.9526
530 82 21.2163 21.4326 -2.9372 337.7525 0.0000 290.3366
531 82 11.0385 20.3134 4.0361 285.3818 0.0000 292.3745
532 82 18.6302 23.9807 0.6710 287.0902 0.0000 240.1510
533 82 11.9490 18.6789 10.1369 334.4539 0.0000 256.1393
534 82 22.8321 19.8152 11.9172 299.1004 0.0000 265.2042
535 82 16.5991 19.4078 5.1049 267.8594 0.0000 288.2277
536 82 17.7089 18.6812 9.1147 335.4250 0.0000 241.3815
537 82 14.3936 20.2437 10.2224 299.1730 0.0000 239.2993
538 82 18.8484 22.3584 10.4379 241.4322 0.0000 282.5015
539 82 16.7951 20.6677 13.7015 339.0531 0.0000 227.5499
540 82 12.0187 21.4926 11.6769 320.0077 0.0000 302.5951
541 82 17.4877 20.6350 14.0693 259.6936 0.0000 282.5893
542 82 17.6890 19.1025 17.9827 301.8650 0.0000 228.4469
543 82 22.5132 17.7528 18.6156 281.5508 0.0000 297.4410
544 82 15.9724 23.5844 21.7976 286.0847 0.0000 265.4629
545 82 15.0663 20.9375 22.9201 243.6725 0.0000 236.9017