ITEM: TIMESTEP
0
ITEM: NUMBER OF ATOMS
864
ITEM: BOX BOUNDS pp pp pp
0.0 24.3000
0.0 24.3000
0.0 24.3000
ITEM: ATOMS id type x y z error strain stiffness
1 13 -0.0009 -0.0109 0.0270 6.3036 0.0000 9.6205
2 13 2.0274 1.9990 0.0305 5.0811 0.0000 8.9625
3 13 2.1157 -0.0400 2.0859 5.0589 0.0000 10.1794
4 13 -0.0598 2.0638 2.0134 5.6671 0.0000 10.1541
5 13 -0.0108 -0.0282 4.1118 6.5214 0.0000 9.7397
6 13 1.9163 2.0144 4.0286 6.0744 0.0000 10.6585
7 13 2.0056 0.0115 6.1131 6.3112 0.0000 8.1772
8 13 0.0483 2.0532 6.0689 6.5617 0.0000 8.8898
9 13 0.0702 0.0242 8.1266 6.1234 0.0000 10.1021
10 13 2.0027 2.0694 8.1771 6.0053 0.0000 8.2956
11 13 2.0858 -0.0434 10.1442 5.6781 0.0000 10.6499
12 13 0.0114 2.0011 10.1467 6.2573 0.0000 10.6177
13 13 0.0546 -0.0080 12.1842 5.6346 0.0000 8.7736
14 13 1.9840 2.0661 12.0275 6.0432 0.0000 8.9211
15 13 2.0464 -0.0320 14.0759 6.3612 0.0000 8.1072
16 13 0.0654 2.0606 14.2470 6.3199 0.0000 9.1461
17 13 0.0292 -0.0708 16.1844 6.0033 0.0000 9.6523
18 13 2.0922 2.0839 16.2648 5.1194 0.0000 8.4995
19 13 2.0602 0.0223 18.2112 5.6548 0.0000 9.2180
20 13 -0.0798 2.1283 18.2583 4.7194 0.0000 9.3077
21 13 -0.0405 0.0168 20.2031 5.8263 0.0000 9.8424
22 13 1.9804 2.0874 20.1907 4.8536 0.0000 9.7662
23 13 1.9604 0.0719 22.2656 4.9564 0.0000 10.7484
24 13 0.0339 2.0948 22.3392 5.6622 0.0000 10.2615
25 13 -0.0326 4.0998 0.0461 6.4435 0.0000 9.0743
26 13 1.9799 6.0890 0.0153 4.5520 0.0000 8.7958
27 13 2.0075 4.0657 2.0535 6.0397 0.0000 10.3610
28 13 -0.0037 6.0490 2.1136 5.7466 0.0000 10.0167
29 13 0.0308 3.9775 4.1149 6.3742 0.0000 10.2445
30 13 1.9308 6.0463 3.9796 4.7205 0.0000 8.5837
31 13 2.0228 4.0016 6.1229 6.1900 0.0000 10.1043
32 13 -0.0629 6.0199 6.0590 5.4714 0.0000 8.2794
33 13 0.0209 4.0053 8.1016 4.9315 0.0000 10.6370
34 13 2.0189 6.1631 8.0689 5.6029 0.0000 10.8802
35 13 2.0008 4.0654 10.1203 5.2731 0.0000 8.9536
36 13 -0.0629 6.1565 10.0629 5.2901 0.0000 10.3054
37 13 0.0196 3.9974 12.1523 5.8878 0.0000 9.3911
38 13 2.0854 6.0423 12.1592 5.4162 0.0000 9.9642
39 13 2.1267 4.0608 14.0843 5.3274 0.0000 10.6806
40 13 0.0383 6.0708 14.0641 6.0908 0.0000 10.4252
41 13 -0.0803 4.0194 16.1602 5.5439 0.0000 8.9723
42 13 2.0078 6.0599 16.2586 5.8564 0.0000 8.3918
43 13 2.0230 4.0740 18.1806 6.6357 0.0000 10.6967
44 13 0.0002 6.0925 18.2698 6.1580 0.0000 9.8752
45 13 -0.0378 3.9692 20.2467 5.8573 0.0000 9.6892
46 13 2.0550 6.0423 20.1819 5.4974 0.0000 10.3685
47 13 1.9185 4.1282 22.3662 5.6151 0.0000 10.6768
48 13 0.0228 5.9703 22.2697 6.2147 0.0000 10.2088
49 13 0.0141 8.1259 -0.0452 4.8458 0.0000 8.1578
50 13 2.1026 10.1386 0.0497 5.3591 0.0000 8.9312
51 13 2.0121 8.2041 2.0791 4.9404 0.0000 8.6008
52 13 0.0158 10.1175 2.0418 6.4500 0.0000 8.6952
53 13 -0.0105 8.0637 4.0532 5.9576 0.0000 10.3976
54 13 1.9791 10.0682 4.0536 5.8455 0.0000 9.4142
55 13 1.9930 8.1590 6.0979 6.0589 0.0000 8.6706
56 13 0.0463 10.0709 6.0860 5.7222 0.0000 8.7635
57 13 0.0138 8.0528 8.1365 6.4164 0.0000 9.1340
58 13 1.9823 10.1292 8.1422 5.9208 0.0000 8.5387
59 13 2.0622 8.0735 10.0471 5.3065 0.0000 9.5790
60 13 0.0372 10.1445 10.1003 5.8318 0.0000 10.7920
61 13 -0.0445 8.1225 12.1363 6.0847 0.0000 10.8599
62 13 2.0056 10.1171 12.1333 5.6963 0.0000 10.0116
63 13 2.0603 8.1792 14.1341 5.3652 0.0000 10.6868
64 13 -0.0002 10.1340 14.1126 5.5405 0.0000 10.4441
65 13 -0.0164 8.1641 16.2167 6.6698 0.0000 10.4132
66 13 1.9860 10.0935 16.1886 5.6230 0.0000 9.4030
67 13 2.0252 8.0901 18.1759 4.8789 0.0000 10.6839
68 13 -0.0320 10.0880 18.2378 5.8854 0.0000 10.5322
69 13 -0.0102 8.0953 20.3138 4.8183 0.0000 8.1364
70 13 2.0590 10.1472 20.2509 5.5306 0.0000 8.2975
71 13 2.0593 8.0544 22.3159 5.2577 0.0000 8.2027
72 13 0.0603 10.1716 22.3122 5.3457 0.0000 10.5140
73 13 -0.0059 12.1737 0.0347 6.0838 0.0000 8.1755
74 13 2.0699 14.1710 0.0501 5.8281 0.0000 9.3239
75 13 1.9987 12.1380 1.9854 6.5670 0.0000 8.6877
76 13 -0.0203 14.1959 2.1012 5.8941 0.0000 8.5534
77 13 0.0181 12.1886 3.9947 6.5022 0.0000 8.8470
78 13 2.0120 14.1514 4.0339 6.5342 0.0000 8.5114
79 13 2.0446 12.2194 6.0574 5.5770 0.0000 10.1706
80 13 0.0389 14.1153 6.1228 5.7418 0.0000 10.6587
81 13 0.0085 12.0838 8.1055 4.6276 0.0000 9.8250
82 13 2.0829 14.2149 8.0344 5.5830 0.0000 10.4280
83 13 1.9632 12.1602 10.2022 5.2595 0.0000 9.5974
84 13 -0.0573 14.1361 10.1392 5.8551 0.0000 9.7946
85 13 0.0811 12.1618 12.1070 5.2118 0.0000 8.4847
86 13 2.0197 14.2551 12.1453 6.0251 0.0000 9.9717
87 13 2.0942 12.1444 14.2407 6.4615 0.0000 9.7506
88 13 0.0222 14.1275 14.2123 5.9228 0.0000 10.5711
89 13 0.0482 12.0604 16.2638 6.5583 0.0000 10.5432
90 13 2.0058 14.1890 16.1814 4.7959 0.0000 9.0786
91 13 2.0426 12.1433 18.2459 5.3779 0.0000 10.5888
92 13 -0.0444 14.1690 18.2143 6.0934 0.0000 10.4583
93 13 -0.0892 12.0889 20.2570 6.0919 0.0000 10.4633
94 13 1.9928 14.1987 20.2792 5.7768 0.0000 10.2999
95 13 2.0056 12.1877 22.3128 5.0889 0.0000 8.4920
96 13 0.0002 14.1812 22.2428 5.3864 0.0000 8.1559
97 13 0.0256 16.2271 -0.1062 4.5778 0.0000 8.8890
98 13 2.1009 18.2188 0.0331 4.9789 0.0000 8.4677
99 13 2.0302 16.2163 2.0401 5.1952 0.0000 9.5093
100 13 -0.0186 18.1638 2.0208 5.6932 0.0000 10.0146
101 13 0.0436 16.1897 3.9918 5.9507 0.0000 8.1752
102 13 1.9404 18.1891 4.0222 5.6905 0.0000 8.6797
103 13 1.9962 16.1650 6.1137 5.9615 0.0000 9.0888
104 13 -0.0438 18.1742 6.0759 6.6408 0.0000 8.3173
105 13 -0.0291 16.1887 8.1236 6.2639 0.0000 8.5609
106 13 1.9007 18.2035 8.1622 4.5214 0.0000 10.2186
107 13 1.9846 16.1816 10.1533 5.3717 0.0000 10.6300
108 13 -0.0558 18.2278 10.1624 5.6592 0.0000 10.4107
109 13 -0.0669 16.2032 12.2040 6.4051 0.0000 10.3001
110 13 2.0028 18.2283 12.1067 5.8230 0.0000 10.8400
111 13 2.0376 16.1921 14.2336 5.6874 0.0000 8.7438
112 13 0.0007 18.2235 14.2688 6.2419 0.0000 9.4841
113 13 0.0253 16.2703 16.1537 6.6590 0.0000 10.7928
114 13 2.1192 18.2433 16.3331 6.5609 0.0000 9.4926
115 13 2.0581 16.1773 18.2105 4.6586 0.0000 8.2717
116 13 0.0925 18.2478 18.1587 5.5962 0.0000 8.3909
117 13 0.0682 16.1731 20.2919 6.2837 0.0000 8.9390
118 13 2.1021 18.2824 20.2875 4.7161 0.0000 8.1518
119 13 1.9840 16.2772 22.2347 5.9147 0.0000 10.5444
120 13 -0.0034 18.1468 22.2147 5.3383 0.0000 9.7464
121 13 0.0021 20.2184 -0.0528 4.9528 0.0000 9.0947
122 13 2.0759 22.2969 0.0151 5.2684 0.0000 8.6418
123 13 2.0405 20.1748 1.9728 5.3113 0.0000 8.8941
124 13 0.0145 22.2954 2.1257 5.8509 0.0000 8.6307
125 13 -0.0171 20.2751 3.9770 5.8055 0.0000 9.2524
126 13 2.1113 22.2809 4.0743 4.5832 0.0000 8.6164
127 13 2.0836 20.2895 6.1093 4.8707 0.0000 10.1201
128 13 -0.0576 22.2903 6.0619 6.4583 0.0000 10.3530
129 13 -0.0485 20.2517 8.0885 4.8752 0.0000 9.1645
130 13 2.0455 22.3080 8.0299 5.2983 0.0000 8.7227
131 13 2.0577 20.2372 10.1249 6.2700 0.0000 8.1541
132 13 -0.0274 22.2089 10.1293 5.4153 0.0000 9.1779
133 13 0.0411 20.1891 12.2157 5.2228 0.0000 9.4114
134 13 1.9966 22.2754 12.1350 5.8248 0.0000 9.6801
135 13 2.0758 20.2385 14.2191 5.7303 0.0000 8.1400
136 13 0.0470 22.2518 14.1353 5.6317 0.0000 10.2047
137 13 0.0888 20.2017 16.1385 5.9248 0.0000 9.8496
138 13 1.9792 22.3455 16.1878 4.5726 0.0000 9.2627
139 13 2.0198 20.2829 18.2986 6.1840 0.0000 9.3964
140 13 -0.0674 22.2830 18.3089 5.2805 0.0000 9.6344
141 13 0.0170 20.1783 20.2473 5.7779 0.0000 9.1920
142 13 1.9991 22.2443 20.2865 6.5360 0.0000 10.2964
143 13 1.9910 20.1605 22.3468 6.1615 0.0000 8.5865
144 13 0.0257 22.2547 22.2443 4.9683 0.0000 9.5403
145 13 4.0556 -0.0222 0.0082 6.3260 0.0000 10.9623
146 13 6.0021 1.9950 0.0067 5.2523 0.0000 10.9269
147 13 6.0288 0.0732 2.0181 5.9117 0.0000 10.3692
148 13 4.0596 2.0294 2.0104 6.5431 0.0000 10.4358
149 13 4.0648 -0.0001 4.1223 5.7930 0.0000 10.0923
150 13 6.0378 2.0423 4.1061 4.6901 0.0000 9.8374
151 13 6.0215 0.0238 6.1105 5.8414 0.0000 8.4273
152 13 4.0192 2.0338 6.0369 5.1584 0.0000 8.9892
153 13 4.1535 -0.0362 8.0789 6.2806 0.0000 8.5421
154 13 6.0236 2.0328 8.1036 6.5914 0.0000 9.2884
155 13 5.9777 -0.0321 10.1582 6.6848 0.0000 10.7670
156 13 4.0196 2.1224 10.1847 4.7665 0.0000 9.7390
157 13 4.1239 0.0972 12.1349 6.7062 0.0000 10.2928
158 13 6.0429 2.0282 12.2207 6.0595 0.0000 10.5053
159 13 6.0029 0.0233 14.1419 6.2599 0.0000 10.8495
160 13 4.0197 1.9806 14.2864 5.1335 0.0000 9.5627
161 13 4.0906 0.0576 16.1166 4.8739 0.0000 10.3985
162 13 6.0326 2.0756 16.1717 6.7168 0.0000 9.8651
163 13 6.1111 -0.0152 18.2221 5.0505 0.0000 10.3108
164 13 4.0503 2.0682 18.2873 6.0119 0.0000 9.5323
165 13 3.9937 0.0197 20.2461 5.4383 0.0000 8.6009
166 13 6.0943 1.9749 20.2602 5.6075 0.0000 10.7112
167 13 6.0689 -0.0696 22.2531 5.0687 0.0000 10.4302
168 13 4.1181 2.0741 22.3115 5.8187 0.0000 9.3486
169 13 4.0266 4.0533 -0.0477 4.5257 0.0000 9.4973
170 13 5.9586 6.0993 -0.0757 4.9233 0.0000 8.9028
171 13 6.0449 4.0949 2.0500 5.2967 0.0000 10.5365
172 13 4.0464 6.0788 2.0319 4.5154 0.0000 10.9025
173 13 4.0133 4.1254 4.0580 4.8882 0.0000 10.6363
174 13 6.0493 6.0816 4.0237 5.5089 0.0000 8.5760
175 13 6.0982 4.0495 6.1126 5.1018 0.0000 10.8963
176 13 4.0133 6.0720 6.1674 5.8572 0.0000 10.7870
177 13 4.0873 4.0314 8.0200 5.7345 0.0000 8.9833
178 13 6.0675 6.1992 8.0212 6.5314 0.0000 9.2044
179 13 6.0392 4.0248 10.1142 4.9612 0.0000 10.8644
180 13 4.1139 6.0662 10.0873 5.9958 0.0000 8.6360
181 13 4.1168 4.0387 12.1484 6.0488 0.0000 10.7794
182 13 6.1098 6.1015 12.1313 6.6804 0.0000 10.7486
183 13 6.0613 4.1067 14.1171 5.8254 0.0000 10.4850
184 13 4.0163 6.1402 14.1857 5.4221 0.0000 9.8728
185 13 3.9367 4.0034 16.1483 5.3365 0.0000 10.9090
186 13 6.1036 6.0802 16.2522 5.6211 0.0000 10.2302
187 13 6.0235 4.0267 18.1278 6.4742 0.0000 10.4535
188 13 4.0049 6.0644 18.2202 4.8242 0.0000 8.9860
189 13 4.0676 4.0462 20.2432 5.2329 0.0000 10.2823
190 13 5.9591 6.0782 20.2190 6.3472 0.0000 10.9592
191 13 5.9646 4.0762 22.2593 5.9181 0.0000 8.1762
192 13 4.0715 6.0266 22.2463 6.2228 0.0000 9.9683
193 13 4.0446 8.0766 0.0193 6.1877 0.0000 9.6508
194 13 6.0311 10.1526 -0.0253 5.3272 0.0000 10.8687
195 13 6.0858 8.0886 2.0463 4.4958 0.0000 10.0292
196 13 4.0397 10.1140 2.0116 5.9107 0.0000 9.3501
197 13 4.0473 8.1445 4.0541 6.1630 0.0000 10.6119
198 13 6.1380 10.0844 4.1074 5.7107 0.0000 8.9073
199 13 6.0771 8.1351 6.0630 6.1362 0.0000 9.6371
200 13 4.0958 10.1196 6.1067 5.7971 0.0000 9.1994
201 13 4.0313 8.1521 8.0908 4.8860 0.0000 8.4354
202 13 6.1164 10.1185 8.0373 5.3671 0.0000 9.7222
203 13 6.0724 8.0483 10.1733 6.5250 0.0000 8.2670
204 13 4.0477 10.1585 10.1523 4.7476 0.0000 8.2848
205 13 3.9931 8.1718 12.1314 4.9624 0.0000 9.8866
206 13 5.9948 10.1174 12.1024 5.3592 0.0000 9.7141
207 13 6.0417 8.0804 14.1637 4.7862 0.0000 8.1231
208 13 4.0351 10.1876 14.1781 6.4369 0.0000 10.9581
209 13 4.0677 8.1370 16.1637 5.8991 0.0000 8.1331
210 13 6.0313 10.1227 16.1846 4.6477 0.0000 8.8778
211 13 6.1029 8.1004 18.2423 5.8976 0.0000 9.4405
212 13 4.0543 10.1926 18.2808 4.5264 0.0000 9.3766
213 13 4.1654 8.1073 20.2472 6.7189 0.0000 8.7076
214 13 6.1119 10.2059 20.2819 5.6701 0.0000 9.3764
215 13 6.0720 8.0717 22.3241 4.5170 0.0000 9.9642
216 13 4.0205 10.1848 22.2774 6.2427 0.0000 10.7776
217 13 4.0632 12.0997 0.1144 5.2615 0.0000 8.6429
218 13 6.1663 14.1885 0.0443 6.1239 0.0000 8.4421
219 13 6.0694 12.1350 1.9910 5.7203 0.0000 8.5861
220 13 4.1048 14.1850 2.0250 5.7969 0.0000 8.4775
221 13 4.0421 12.1461 4.0249 5.3866 0.0000 8.7614
222 13 6.1017 14.1785 4.0650 6.4051 0.0000 9.3810
223 13 6.0733 12.1710 6.0674 4.8045 0.0000 10.6110
224 13 4.1720 14.1624 6.0258 6.3907 0.0000 9.9115
225 13 4.0359 12.2381 8.1067 6.0185 0.0000 9.7892
226 13 6.1273 14.0876 8.0669 4.7771 0.0000 8.7163
227 13 6.1697 12.1315 10.0407 4.5544 0.0000 10.8008
228 13 4.0498 14.1537 10.1220 6.5084 0.0000 9.1656
229 13 4.1245 12.1513 12.2046 4.7232 0.0000 8.1489
230 13 6.1447 14.2318 12.2054 4.5039 0.0000 9.0738
231 13 6.0964 12.1476 14.1056 4.8770 0.0000 9.0749
232 13 3.9908 14.1816 14.2321 6.5077 0.0000 10.8468
233 13 4.0698 12.1365 16.1602 5.8868 0.0000 10.0428
234 13 6.0770 14.1767 16.2129 4.9348 0.0000 10.1773
235 13 6.1121 12.1496 18.1824 4.9577 0.0000 10.4950
236 13 4.0527 14.1885 18.2866 4.8977 0.0000 10.5652
237 13 4.0578 12.2140 20.2428 5.9753 0.0000 8.8226
238 13 6.0961 14.1894 20.3101 6.5904 0.0000 8.3917
239 13 6.0577 12.1043 22.3310 5.5625 0.0000 9.5662
240 13 4.0690 14.2627 22.1976 6.2650 0.0000 9.2174
241 13 4.0446 16.1399 0.0258 6.0259 0.0000 10.3638
242 13 6.0543 18.1918 0.0091 6.3626 0.0000 9.2610
243 13 6.1003 16.2236 2.0003 4.9539 0.0000 9.8336
244 13 4.0856 18.1993 2.0378 5.1524 0.0000 8.4582
245 13 4.1356 16.2346 4.1216 5.1220 0.0000 10.3759
246 13 6.0883 18.3174 4.1012 5.1190 0.0000 10.5592
247 13 6.1264 16.1580 6.0903 5.9964 0.0000 9.4123
248 13 3.9903 18.1881 6.0216 5.7938 0.0000 9.9830
249 13 4.0337 16.2502 8.0595 6.6222 0.0000 10.7732
250 13 6.0325 18.2798 8.0706 5.3012 0.0000 8.9576
251 13 6.1435 16.2562 10.1668 5.8017 0.0000 10.7622
252 13 4.0097 18.2436 10.0783 6.5273 0.0000 10.3065
253 13 4.0072 16.2682 12.0466 6.2975 0.0000 9.9720
254 13 6.0076 18.2090 12.0488 6.4271 0.0000 9.8887
255 13 6.0617 16.2143 14.1402 4.8542 0.0000 8.5526
256 13 4.0383 18.2577 14.1404 6.4868 0.0000 9.6249
257 13 4.1213 16.2753 16.1331 4.8176 0.0000 8.9520
258 13 6.0462 18.1746 16.2855 6.6784 0.0000 10.5274
259 13 6.0208 16.2277 18.2428 6.1188 0.0000 10.3030
260 13 4.0358 18.1828 18.2664 5.4986 0.0000 9.5179
261 13 4.0588 16.1789 20.3490 5.7013 0.0000 8.6948
262 13 6.0668 18.1645 20.2335 6.4665 0.0000 10.7239
263 13 6.0911 16.1835 22.2438 5.4085 0.0000 8.4624
264 13 4.0830 18.2561 22.3605 5.0201 0.0000 10.4709
265 13 4.0579 20.2240 -0.0107 4.9653 0.0000 10.5611
266 13 6.1305 22.2690 -0.0268 6.4723 0.0000 10.3608
267 13 6.0157 20.2519 2.0756 5.5911 0.0000 10.8827
268 13 4.0072 22.3087 2.0580 6.7014 0.0000 10.9102
269 13 4.0888 20.1934 4.0878 5.2870 0.0000 9.8976
270 13 6.0051 22.2538 3.9785 6.0704 0.0000 8.3066
271 13 5.9916 20.2203 6.0637 4.7000 0.0000 9.8373
272 13 4.0168 22.2273 6.1284 6.0152 0.0000 8.5247
273 13 4.0093 20.3103 8.1340 5.0318 0.0000 9.4946
274 13 5.9981 22.2250 8.1743 4.9140 0.0000 8.1486
275 13 6.0969 20.2779 10.1508 6.4593 0.0000 10.8838
276 13 4.1361 22.2701 10.1102 5.6312 0.0000 9.7910
277 13 4.0768 20.2997 12.1553 6.1804 0.0000 9.5123
278 13 6.0066 22.2680 12.1533 5.6375 0.0000 10.7517
279 13 6.0717 20.2185 14.0797 4.6340 0.0000 10.8743
280 13 4.0257 22.2590 14.1232 6.7074 0.0000 8.1544
281 13 4.1200 20.2535 16.2363 6.1811 0.0000 8.4026
282 13 6.0261 22.2491 16.2180 4.7519 0.0000 10.5610
283 13 6.1415 20.3122 18.2331 5.9003 0.0000 9.6876
284 13 4.0564 22.3193 18.2329 6.3448 0.0000 8.1425
285 13 3.9890 20.3089 20.2176 5.4577 0.0000 8.2351
286 13 6.0754 22.2998 20.1834 4.7274 0.0000 10.2061
287 13 6.0529 20.3042 22.2724 4.7788 0.0000 8.8732
288 13 4.0160 22.2425 22.3398 6.1388 0.0000 10.7750
289 13 8.0962 -0.0025 0.0280 6.5589 0.0000 9.5216
290 13 10.1197 2.0141 -0.0541 6.3059 0.0000 10.3286
291 13 10.1990 0.0029 2.0782 5.4284 0.0000 9.5307
292 13 8.0812 2.0095 2.0764 6.5661 0.0000 10.7157
293 13 8.1060 0.0759 4.0237 4.6693 0.0000 9.6191
294 13 10.0808 2.0077 4.0620 4.7617 0.0000 10.4715
295 13 10.1687 -0.0231 6.0592 6.5475 0.0000 9.1858
296 13 8.1292 1.9967 6.0815 4.5508 0.0000 9.8786
297 13 8.0840 0.0162 8.0763 6.1471 0.0000 9.5977
298 13 10.1244 1.9844 8.0661 5.6537 0.0000 9.3587
299 13 10.1475 -0.0197 10.2093 4.5441 0.0000 8.1334
300 13 8.0212 1.9950 10.1321 5.6091 0.0000 9.4873
301 13 8.0522 0.0507 12.1091 5.7186 0.0000 9.4790
302 13 10.1531 2.0300 12.2268 4.9027 0.0000 8.6360
303 13 10.1271 -0.0390 14.1441 5.3582 0.0000 8.5524
304 13 8.1833 1.9842 14.1913 4.9269 0.0000 8.9509
305 13 8.0301 -0.0279 16.2057 5.4165 0.0000 8.3402
306 13 10.1035 1.9495 16.1399 5.5719 0.0000 9.0889
307 13 10.0547 0.0477 18.2608 4.9764 0.0000 8.4409
308 13 8.1195 2.0582 18.3032 5.6087 0.0000 8.7287
309 13 8.0496 0.0399 20.2962 4.8666 0.0000 10.1867
310 13 10.1248 1.9968 20.1753 6.3138 0.0000 10.8037
311 13 10.0370 0.0019 22.1769 4.6122 0.0000 10.3933
312 13 8.0735 2.0133 22.3130 5.5056 0.0000 10.3020
313 13 8.0826 4.1014 0.0673 5.5751 0.0000 8.3230
314 13 10.0891 6.0981 0.0024 6.5526 0.0000 8.6011
315 13 10.1497 4.0636 2.1234 5.7858 0.0000 9.0668
316 13 8.0925 6.0302 1.9863 4.6196 0.0000 10.8758
317 13 8.0425 4.0218 4.0373 6.6880 0.0000 10.6310
318 13 10.0279 6.0947 3.9930 5.2920 0.0000 9.2622
319 13 10.0489 4.0335 6.0985 5.7679 0.0000 9.6711
320 13 8.0758 6.1474 6.0681 5.1638 0.0000 10.1993
321 13 8.0401 4.0396 8.0783 6.3510 0.0000 8.1413
322 13 10.1328 6.0488 8.0385 5.9286 0.0000 9.5492
323 13 10.1551 4.0308 10.1035 6.0186 0.0000 10.7957
324 13 8.0983 5.9862 10.1046 5.7685 0.0000 8.7219
325 13 8.0985 4.1004 12.2041 5.4899 0.0000 10.5168
326 13 10.1444 6.1343 12.1701 5.7391 0.0000 9.5371
327 13 10.1787 4.1045 14.1642 6.6336 0.0000 10.3997
328 13 8.0650 5.9778 14.2138 5.3037 0.0000 8.4925
329 13 8.1344 4.0567 16.1817 6.2465 0.0000 9.5836
330 13 10.1742 6.1500 16.1647 6.3045 0.0000 8.7237
331 13 10.1672 4.0445 18.2265 5.9833 0.0000 9.9891
332 13 8.1015 6.0207 18.2550 6.3838 0.0000 10.7091
333 13 7.9856 4.0989 20.2739 6.5095 0.0000 10.2037
334 13 10.0976 6.1301 20.2270 5.2742 0.0000 8.8391
335 13 10.0964 3.9982 22.2814 5.3326 0.0000 9.0293
336 13 8.0601 6.0863 22.3100 4.9259 0.0000 10.6474
337 13 8.1267 8.0973 -0.0172 4.8356 0.0000 10.7405
338 13 10.1954 10.1486 0.0081 4.9895 0.0000 9.3183
339 13 10.0843 8.1503 1.9951 5.2467 0.0000 9.5230
340 13 8.1278 10.0714 2.0268 5.0250 0.0000 9.8011
341 13 8.1529 8.2214 4.0237 5.6715 0.0000 10.5244
342 13 10.0501 10.1981 4.0480 6.6347 0.0000 9.3549
343 13 10.2081 8.0796 5.9686 6.2100 0.0000 9.7105
344 13 8.0143 10.1039 6.1023 5.5293 0.0000 8.5132
345 13 8.0165 8.1529 8.1107 4.9418 0.0000 10.6253
346 13 10.1256 10.1112 8.0634 6.3723 0.0000 9.0305
347 13 10.1538 8.1505 10.0889 5.2398 0.0000 10.2034
348 13 8.1175 10.1399 10.1680 5.5336 0.0000 9.4080
349 13 8.1298 8.0464 12.1223 5.8689 0.0000 8.8713
350 13 10.1871 10.1758 12.0797 4.7213 0.0000 8.7853
351 13 10.0208 8.1210 14.2604 5.5628 0.0000 10.2211
352 13 8.1579 10.0583 14.1499 5.6901 0.0000 8.9214
353 13 8.0442 8.0303 16.2084 6.2419 0.0000 9.4392
354 13 10.0871 10.1674 16.1875 4.7958 0.0000 8.1879
355 13 10.1232 8.1369 18.1623 6.3408 0.0000 9.4327
356 13 8.0744 10.1142 18.2163 5.7440 0.0000 8.6514
357 13 8.1547 8.0834 20.2431 5.3341 0.0000 9.8259
358 13 10.0760 10.1071 20.2491 5.2202 0.0000 8.1094
359 13 10.1028 8.1340 22.2979 4.5602 0.0000 10.0545
360 13 8.0859 10.1545 22.2214 5.1431 0.0000 8.4278
361 13 8.1201 12.1680 0.0296 5.5793 0.0000 9.4364
362 13 10.1212 14.1818 -0.0284 5.1792 0.0000 10.2126
363 13 10.1024 12.1282 1.9511 5.5642 0.0000 8.2515
364 13 8.1052 14.1884 2.0322 5.2204 0.0000 8.3411
365 13 8.2052 12.2080 4.0795 6.3937 0.0000 9.9615
366 13 10.1043 14.2416 3.9914 5.3895 0.0000 10.7514
367 13 10.0364 12.1900 6.0046 5.8417 0.0000 9.9496
368 13 8.0406 14.1962 6.1178 5.5736 0.0000 8.7417
369 13 8.0720 12.1083 8.0858 6.5210 0.0000 10.3587
370 13 10.1252 14.1177 8.0776 6.3333 0.0000 9.6024
371 13 10.1152 12.2063 10.1116 6.5618 0.0000 10.8774
372 13 8.0070 14.2063 10.1231 4.5594 0.0000 9.8362
373 13 8.0675 12.2001 12.1834 4.8157 0.0000 8.9918
374 13 10.0697 14.2847 12.1808 4.7477 0.0000 9.1096
375 13 10.1569 12.1957 14.1613 4.5425 0.0000 8.5032
376 13 8.1928 14.2385 14.2447 6.0042 0.0000 8.3778
377 13 8.1083 12.1072 16.1713 6.6901 0.0000 10.6273
378 13 10.1440 14.1849 16.1555 4.8895 0.0000 9.6356
379 13 10.1191 12.2021 18.1525 4.6461 0.0000 9.6597
380 13 8.1553 14.1306 18.2242 6.5878 0.0000 10.8504
381 13 8.2008 12.1793 20.2421 6.4877 0.0000 9.5135
382 13 10.1283 14.1466 20.2056 4.6865 0.0000 9.7524
383 13 10.0925 12.1260 22.3258 6.4022 0.0000 9.9198
384 13 8.0506 14.1663 22.3078 5.9781 0.0000 8.3198
385 13 8.0676 16.1980 0.0362 5.5585 0.0000 10.9563
386 13 10.0797 18.2174 0.0306 6.0617 0.0000 10.1600
387 13 10.1199 16.2105 2.0163 6.2183 0.0000 9.5563
388 13 8.1064 18.2319 2.0110 6.1673 0.0000 10.3793
389 13 8.1314 16.1101 4.0674 6.4339 0.0000 10.5624
390 13 10.0987 18.2007 4.1125 5.4593 0.0000 8.4556
391 13 10.1298 16.1465 6.0390 6.7298 0.0000 9.7237
392 13 8.1040 18.2028 6.1248 5.5104 0.0000 10.7694
393 13 8.0920 16.2403 8.0254 5.7986 0.0000 8.3171
394 13 10.0296 18.2281 8.1640 4.7652 0.0000 8.1410
395 13 10.1027 16.2339 10.1015 6.0658 0.0000 9.3640
396 13 8.0103 18.1894 10.1165 5.9493 0.0000 10.8932
397 13 8.0679 16.1908 12.0773 5.8207 0.0000 10.5627
398 13 10.0852 18.2206 12.1837 5.6939 0.0000 10.1196
399 13 10.0912 16.1800 14.2767 4.7575 0.0000 10.8760
400 13 8.0426 18.2972 14.1414 6.2046 0.0000 8.3370
401 13 8.0307 16.2073 16.2143 6.7142 0.0000 10.4964
402 13 10.1475 18.1843 16.1813 6.1239 0.0000 9.6683
403 13 10.1009 16.2760 18.1690 6.1881 0.0000 10.5491
404 13 8.0713 18.1790 18.2308 4.8936 0.0000 10.9475
405 13 8.1043 16.2041 20.2182 6.4426 0.0000 8.5836
406 13 10.1595 18.2597 20.3679 6.5552 0.0000 10.1899
407 13 10.1629 16.2151 22.2604 5.5947 0.0000 10.3597
408 13 8.0945 18.2721 22.2457 4.8403 0.0000 10.5754
409 13 8.0542 20.2640 -0.0445 5.9842 0.0000 9.7902
410 13 10.1391 22.2427 -0.0688 5.2595 0.0000 8.8012
411 13 10.1166 20.2615 2.0323 4.6446 0.0000 8.2497
412 13 8.1610 22.2868 1.9636 4.7839 0.0000 8.4192
413 13 8.1695 20.2344 3.9646 5.2429 0.0000 10.4735
414 13 10.2344 22.2835 4.0367 6.5113 0.0000 10.0427
415 13 10.1644 20.2787 6.0401 4.7291 0.0000 9.4373
416 13 8.1191 22.2533 6.1258 5.0723 0.0000 8.2090
417 13 8.0655 20.2524 8.1056 5.1001 0.0000 10.5760
418 13 10.0968 22.3107 8.1436 5.7343 0.0000 10.1394
419 13 10.1792 20.2037 10.0864 4.8102 0.0000 8.9741
420 13 8.0701 22.2925 10.1862 5.5806 0.0000 10.0166
421 13 8.0963 20.2597 12.1505 4.5065 0.0000 9.2918
422 13 10.0579 22.2376 12.1768 4.7998 0.0000 9.2837
423 13 10.1252 20.2326 14.2515 6.0906 0.0000 9.7896
424 13 8.1103 22.2347 14.1680 4.8513 0.0000 8.1735
425 13 8.1194 20.2239 16.2307 5.0406 0.0000 10.1201
426 13 10.1076 22.2677 16.1801 4.5911 0.0000 9.6224
427 13 10.0152 20.2029 18.2477 5.1611 0.0000 8.6139
428 13 8.1396 22.2513 18.2608 4.7952 0.0000 8.5241
429 13 8.1154 20.2634 20.2318 5.7937 0.0000 10.1341
430 13 10.1885 22.2101 20.2758 6.1139 0.0000 10.6896
431 13 10.1183 20.2213 22.3365 6.2189 0.0000 9.7894
432 13 8.1448 22.2630 22.2281 4.6640 0.0000 8.3332
433 13 12.1466 0.0495 -0.0553 5.6943 0.0000 9.2664
434 13 14.1551 2.0197 0.0797 5.0958 0.0000 8.7722
435 13 14.1418 0.0234 2.0485 6.3373 0.0000 9.1763
436 13 12.1527 1.9646 1.9928 4.8975 0.0000 9.5664
437 13 12.1131 -0.0720 4.0454 6.1555 0.0000 9.5505
438 13 14.1843 1.9943 4.0730 5.2545 0.0000 9.3840
439 13 14.1523 0.0701 6.1207 6.1161 0.0000 8.8317
440 13 12.1981 2.0415 6.0508 5.5615 0.0000 10.8829
441 13 12.1180 0.0186 8.0728 6.2971 0.0000 8.5132
442 13 14.2046 1.9530 8.0708 6.6316 0.0000 10.8332
443 13 14.1303 -0.0303 10.1181 5.6063 0.0000 10.3210
444 13 12.2253 2.0505 10.1003 6.6177 0.0000 9.1177
445 13 12.1214 -0.0001 12.1269 4.7765 0.0000 10.8436
446 13 14.1888 2.0478 12.1885 4.5832 0.0000 8.4622
447 13 14.1655 -0.0164 14.0680 5.2028 0.0000 8.9399
448 13 12.1268 2.1040 14.2117 5.8022 0.0000 10.5855
449 13 12.1510 0.1187 16.1972 5.0584 0.0000 10.1805
450 13 14.1882 2.0688 16.1411 6.2262 0.0000 9.1865
451 13 14.2241 0.0341 18.2178 4.5207 0.0000 10.9200
452 13 12.1177 2.0809 18.2091 6.5527 0.0000 10.7953
453 13 12.1180 0.0556 20.2144 5.7397 0.0000 9.3271
454 13 14.1988 2.0767 20.2858 6.7008 0.0000 10.5056
455 13 14.1406 0.0068 22.2352 4.5109 0.0000 10.8700
456 13 12.1013 1.9825 22.2255 5.6633 0.0000 10.8270
457 13 12.2863 4.0415 0.0470 4.6829 0.0000 9.8244
458 13 14.2050 6.0430 -0.0159 5.6058 0.0000 8.8843
459 13 14.2102 3.9953 2.0574 4.7352 0.0000 8.2088
460 13 12.1765 6.0475 1.9206 5.3418 0.0000 10.6452
461 13 12.0789 4.0357 4.0164 6.6645 0.0000 8.9360
462 13 14.1780 6.0972 4.0151 4.8519 0.0000 8.3221
463 13 14.1393 4.0976 6.0943 4.9279 0.0000 9.8649
464 13 12.0978 6.0520 6.0537 4.5550 0.0000 9.1917
465 13 12.1038 4.0447 8.0470 5.0549 0.0000 8.5699
466 13 14.2304 6.1113 8.1175 5.6496 0.0000 10.1900
467 13 14.2245 4.0551 10.0799 5.6859 0.0000 10.4494
468 13 12.2104 6.0709 10.1519 5.8241 0.0000 8.6292
469 13 12.1059 4.0913 12.1700 5.0705 0.0000 10.6121
470 13 14.1883 6.0857 12.2231 5.3117 0.0000 8.8586
471 13 14.2231 3.9769 14.2443 4.6616 0.0000 8.7085
472 13 12.0948 6.0602 14.2150 4.5422 0.0000 8.4704
473 13 12.1549 4.0926 16.1386 5.9618 0.0000 8.7666
474 13 14.1651 6.1081 16.2201 5.0734 0.0000 9.9409
475 13 14.1988 4.0655 18.2290 6.3939 0.0000 9.2799
476 13 12.1062 6.0604 18.2235 6.1281 0.0000 10.5788
477 13 12.0847 4.1053 20.2465 6.5549 0.0000 8.1842
478 13 14.1353 5.9688 20.2209 4.9538 0.0000 10.8066
479 13 14.1627 3.9944 22.2828 5.2964 0.0000 10.4279
480 13 12.1782 6.0970 22.2493 4.4993 0.0000 8.9641
481 13 12.1089 8.1623 0.0146 6.4100 0.0000 9.2680
482 13 14.1923 10.1532 -0.0594 6.5655 0.0000 8.9262
483 13 14.2046 8.0939 1.9940 5.3230 0.0000 10.6297
484 13 12.2069 10.1204 2.0673 6.5369 0.0000 8.5291
485 13 12.1459 8.1189 4.1126 6.5887 0.0000 9.1283
486 13 14.1590 10.0711 4.0386 6.4727 0.0000 10.1219
487 13 14.1736 8.0670 6.0384 5.4810 0.0000 8.4093
488 13 12.1719 10.1380 6.0006 4.9382 0.0000 8.8693
489 13 12.1404 8.0629 8.1359 5.8377 0.0000 8.5837
490 13 14.1596 10.0704 8.1033 6.4907 0.0000 10.7394
491 13 14.1792 8.0900 10.1034 6.3123 0.0000 10.9484
492 13 12.1223 10.1088 10.1695 6.1536 0.0000 10.8693
493 13 12.2326 8.1244 12.1153 5.1283 0.0000 8.1764
494 13 14.1969 10.0477 12.0581 6.4860 0.0000 9.9917
495 13 14.1796 8.1246 14.1588 4.5334 0.0000 8.4932
496 13 12.1381 10.1082 14.1612 5.3347 0.0000 9.6968
497 13 12.1540 8.0961 16.2161 6.6356 0.0000 8.2671
498 13 14.1854 10.1082 16.2292 5.2674 0.0000 8.1524
499 13 14.2915 8.0928 18.1619 5.1893 0.0000 9.5219
500 13 12.2056 10.1100 18.1839 5.0667 0.0000 10.0502
501 13 12.2181 8.1406 20.3325 5.4414 0.0000 9.5005
502 13 14.2027 10.2087 20.2381 6.1785 0.0000 10.6717
503 13 14.1798 8.0806 22.2769 5.0884 0.0000 9.5722
504 13 12.1705 10.0516 22.1871 4.5953 0.0000 10.0492
505 13 12.1727 12.0712 0.0105 6.4929 0.0000 10.4014
506 13 14.1257 14.1371 -0.0642 4.9698 0.0000 9.6391
507 13 14.1803 12.1193 1.9738 4.9979 0.0000 9.6862
508 13 12.1114 14.2790 2.0068 4.6324 0.0000 8.3624
509 13 12.1706 12.1834 4.0649 5.6973 0.0000 9.1372
510 13 14.1562 14.2829 4.0371 4.9394 0.0000 9.3960
511 13 14.1629 12.1596 6.1432 4.7577 0.0000 9.3416
512 13 12.1394 14.1609 6.0901 4.8230 0.0000 10.0469
513 13 12.1366 12.1942 8.0871 6.4752 0.0000 8.8134
514 13 14.1710 14.2878 8.0927 5.9009 0.0000 10.0701
515 13 14.1969 12.1419 10.1539 4.4894 0.0000 9.8468
516 13 12.1577 14.1720 10.0625 4.8491 0.0000 9.4875
517 13 12.1494 12.1243 12.2001 4.5508 0.0000 8.4067
518 13 14.1973 14.1274 12.1651 4.8413 0.0000 9.7874
519 13 14.1326 12.0734 14.1619 6.0694 0.0000 10.4244
520 13 12.1170 14.1891 14.2418 5.2489 0.0000 8.7427
521 13 12.1176 12.1313 16.1563 5.9931 0.0000 10.6183
522 13 14.1888 14.1601 16.0748 4.9306 0.0000 10.2704
523 13 14.1750 12.0987 18.2297 5.1167 0.0000 10.7160
524 13 12.1522 14.1851 18.2086 4.8676 0.0000 8.1389
525 13 12.2205 12.1348 20.3185 6.0629 0.0000 8.2839
526 13 14.2110 14.2219 20.2379 6.1364 0.0000 9.5387
527 13 14.2561 12.1798 22.2504 6.2745 0.0000 9.8863
528 13 12.2089 14.1367 22.1678 5.1046 0.0000 9.5826
529 13 12.1773 16.2148 -0.1221 5.3917 0.0000 10.6570
530 13 14.1709 18.1833 0.0306 6.5785 0.0000 10.6669
531 13 14.1084 16.1829 2.0085 6.1313 0.0000 9.4507
532 13 12.1725 18.1970 1.9844 4.8118 0.0000 9.7337
533 13 12.0680 16.3030 4.0655 6.0897 0.0000 10.3796
534 13 14.2358 18.2435 4.0611 5.6899 0.0000 9.1884
535 13 14.1655 16.2405 6.0164 6.1288 0.0000 9.2661
536 13 12.0923 18.1616 6.1109 6.5443 0.0000 8.1496
537 13 12.0778 16.1818 8.1011 4.5076 0.0000 9.1692
538 13 14.1476 18.1699 8.1254 6.4835 0.0000 10.6117
539 13 14.2006 16.1846 10.1981 5.7095 0.0000 8.4993
540 13 12.0644 18.2487 10.1516 6.2517 0.0000 8.2037
541 13 12.1679 16.2113 12.1758 6.2987 0.0000 9.5672
542 13 14.1548 18.1794 12.1145 4.9041 0.0000 9.7001
543 13 14.1458 16.2052 14.2160 5.9251 0.0000 9.8906
544 13 12.1893 18.2012 14.2283 4.6685 0.0000 9.2025
545 13 12.2603 16.1527 16.3042 4.5727 0.0000 8.5850
546 13 14.1552 18.2372 16.1656 5.4501 0.0000 9.9759
547 13 14.1096 16.2537 18.2695 6.3582 0.0000 9.0464
548 13 12.1414 18.2394 18.2502 5.3581 0.0000 9.0489
549 13 12.0291 16.2183 20.2526 4.7967 0.0000 9.1840
550 13 14.1410 18.2187 20.2717 5.3750 0.0000 8.2580
551 13 14.1020 16.1376 22.2173 5.8991 0.0000 10.3673
552 13 12.0912 18.2314 22.3270 6.0665 0.0000 8.3869
553 13 12.1336 20.3074 -0.0152 5.7703 0.0000 9.4169
554 13 14.2151 22.2926 -0.0020 5.1273 0.0000 8.5537
555 13 14.1749 20.2319 1.9896 4.9415 0.0000 9.1516
556 13 12.0969 22.2879 1.9812 5.8527 0.0000 8.1601
557 13 12.1248 20.2684 3.9811 5.8046 0.0000 8.8832
558 13 14.1515 22.1889 4.0833 5.1636 0.0000 9.3519
559 13 14.1378 20.2222 6.0605 5.6572 0.0000 9.9616
560 13 12.1930 22.2008 6.1162 5.9977 0.0000 9.6807
561 13 12.1665 20.1905 8.1211 4.6409 0.0000 10.8839
562 13 14.1919 22.3522 8.1221 4.6624 0.0000 10.6860
563 13 14.1479 20.2231 10.2097 5.1231 0.0000 9.9007
564 13 12.1844 22.3264 10.1284 5.2903 0.0000 10.6866
565 13 12.1367 20.2955 12.2506 5.0618 0.0000 9.3487
566 13 14.2055 22.3228 12.1313 4.9909 0.0000 9.0328
567 13 14.1479 20.1969 14.1625 4.8696 0.0000 10.6899
568 13 12.1452 22.2498 14.1609 5.7843 0.0000 10.4237
569 13 12.0912 20.1786 16.2331 5.3634 0.0000 9.6191
570 13 14.2073 22.2275 16.2128 6.0406 0.0000 10.1879
571 13 14.1726 20.2137 18.2476 6.0753 0.0000 9.6428
572 13 12.1365 22.2859 18.2943 6.3003 0.0000 10.8629
573 13 12.1922 20.2795 20.2920 5.0030 0.0000 8.1184
574 13 14.2109 22.2689 20.2640 6.2824 0.0000 8.8738
575 13 14.1169 20.2610 22.2730 5.5387 0.0000 10.3173
576 13 12.2100 22.3352 22.3226 6.5804 0.0000 10.8392
577 13 16.1799 -0.1048 -0.0865 5.4770 0.0000 9.3153
578 13 18.1810 2.0010 0.0604 6.2438 0.0000 9.0246
579 13 18.1578 0.0109 2.0348 5.8323 0.0000 8.4509
580 13 16.2618 2.0271 2.0549 5.9185 0.0000 8.8886
581 13 16.1619 -0.0653 4.0741 5.0037 0.0000 9.3065
582 13 18.2331 2.0054 4.0020 6.7042 0.0000 9.2820
583 13 18.2298 -0.1136 6.0668 6.6161 0.0000 8.8037
584 13 16.2171 2.0237 5.9824 6.1506 0.0000 8.3853
585 13 16.1244 -0.0344 8.1023 5.1795 0.0000 9.4174
586 13 18.2694 2.0654 8.1260 5.1756 0.0000 9.9772
587 13 18.2151 -0.0073 10.0636 6.2282 0.0000 8.6391