ITEM: TIMESTEP
0
ITEM: NUMBER OF ATOMS
1024
ITEM: BOX BOUNDS pp pp pp
0.0 23.2800
0.0 23.2800
0.0 23.2800
ITEM: ATOMS id type x y z error strain stiffness
1 24 0.1665 -0.1535 -0.0168 53.8864 0.0000 8.4241
2 24 1.0624 1.3365 1.4947 57.9177 0.0000 8.2093
3 24 -0.0746 0.1167 3.1425 45.5451 0.0000 9.0223
4 24 1.6330 1.3450 4.8151 53.6520 0.0000 8.2381
5 24 0.4092 -0.3486 5.6363 58.0457 0.0000 9.6559
6 24 2.0080 1.6404 6.9116 56.9479 0.0000 9.9516
7 24 0.1718 0.0852 8.8819 47.3814 0.0000 9.6443
8 24 1.6773 1.4090 10.2479 57.6187 0.0000 8.9025
9 24 -0.0735 -0.3245 12.0453 44.5427 0.0000 7.4895
10 24 1.1057 1.8676 13.2976 49.7735 0.0000 9.6988
11 24 0.1236 -0.0286 14.7968 59.5438 0.0000 7.8085
12 24 1.3299 1.4778 15.7314 44.8228 0.0000 8.8543
13 24 0.4894 -0.0322 17.8790 61.3714 0.0000 7.8253
14 24 1.2102 1.9882 18.9919 51.5803 0.0000 8.4649
15 24 0.1931 0.2391 20.5400 51.7384 0.0000 8.8846
16 24 1.0622 1.4970 21.0353 49.0932 0.0000 8.9048
17 24 -0.1883 3.2361 -0.0557 55.8045 0.0000 7.8706
18 24 1.2623 4.3874 1.0766 51.0607 0.0000 8.6623
19 24 -0.2758 2.5968 2.9645 49.9900 0.0000 8.2286
20 24 1.7634 4.8828 4.0741 52.5957 0.0000 8.6094
21 24 -0.1785 2.9195 5.3586 52.9925 0.0000 9.5794
22 24 1.2856 4.4814 6.8687 49.5727 0.0000 8.1441
23 24 -0.1559 2.3077 8.4234 45.5927 0.0000 9.1142
24 24 2.0698 4.3016 9.8405 60.5432 0.0000 7.6472
25 24 -0.0864 3.5214 11.8821 61.1426 0.0000 7.9506
26 24 1.6076 4.5778 13.1003 56.8142 0.0000 9.4148
27 24 -0.0363 2.9665 14.9371 45.5605 0.0000 9.7323
28 24 1.2895 4.0512 16.4620 49.4289 0.0000 8.4480
29 24 0.0754 3.0670 17.2755 45.3848 0.0000 9.7765
30 24 1.3838 4.1149 19.2131 47.4275 0.0000 7.6044
31 24 0.3982 2.4257 20.3430 49.1233 0.0000 7.6151
32 24 1.4207 4.2225 22.4148 46.7630 0.0000 9.6633
33 24 0.2558 5.8309 -0.2302 49.3910 0.0000 8.3627
34 24 1.5970 7.1341 1.6843 60.6982 0.0000 9.8839
35 24 -0.6276 6.0767 2.7250 56.2179 0.0000 9.1740
36 24 1.7795 7.3399 4.4623 56.4681 0.0000 7.6545
37 24 0.4674 6.0625 5.3738 62.3606 0.0000 10.0504
38 24 1.5679 7.1812 7.0717 45.3027 0.0000 9.2526
39 24 -0.5913 5.8523 8.9416 62.6765 0.0000 9.4972
40 24 1.3975 7.2245 10.7019 49.8160 0.0000 7.8771
41 24 -0.4995 5.9706 11.9142 43.4597 0.0000 7.5909
42 24 1.8598 6.9984 12.8261 53.1563 0.0000 7.5098
43 24 0.3152 5.7796 14.4297 49.8983 0.0000 7.5301
44 24 1.4693 7.1860 15.9006 48.5900 0.0000 8.9027
45 24 0.0249 5.4376 17.3500 52.5973 0.0000 8.6839
46 24 1.1667 6.8155 18.8628 52.7763 0.0000 7.7750
47 24 -0.0525 6.0672 20.5069 43.5824 0.0000 7.4973
48 24 1.4639 6.7223 21.6253 44.3634 0.0000 7.6693
49 24 -0.2773 8.5788 0.1770 60.8466 0.0000 7.9533
50 24 1.4465 10.2177 1.6580 50.7875 0.0000 9.5077
51 24 -0.4187 8.4316 2.7599 48.7138 0.0000 9.3135
52 24 1.5054 10.1181 4.2666 61.9364 0.0000 9.9916
53 24 -0.1692 8.8212 5.9856 59.1013 0.0000 8.5394
54 24 1.4319 10.3083 7.4125 55.9028 0.0000 10.0019
55 24 0.2135 8.4284 9.1090 45.6973 0.0000 9.6385
56 24 1.3355 10.3479 9.8694 60.0826 0.0000 8.8568
57 24 0.0645 8.7163 11.3518 53.8781 0.0000 8.7244
58 24 1.3971 10.1299 13.0044 53.3100 0.0000 8.0747
59 24 -0.2033 9.2155 14.5890 53.9095 0.0000 8.7803
60 24 1.3658 10.2331 16.2312 57.7517 0.0000 8.1858
61 24 -0.3214 8.8276 17.1616 52.6337 0.0000 8.8304
62 24 1.3760 9.6972 18.5432 50.4186 0.0000 8.6493
63 24 0.0369 8.7624 20.1091 53.2632 0.0000 8.3673
64 24 1.5783 10.3610 21.8840 49.0059 0.0000 8.6041
65 24 -0.1913 11.7891 -0.2141 44.5355 0.0000 7.9286
66 24 1.7499 13.3314 1.0341 52.0254 0.0000 9.3513
67 24 0.0985 11.5813 2.9994 60.3271 0.0000 7.6912
68 24 1.5784 12.9187 4.2043 52.9005 0.0000 7.8282
69 24 0.3423 11.8887 5.9426 57.1747 0.0000 9.6319
70 24 1.7533 12.4209 6.9469 62.5627 0.0000 7.7549
71 24 0.4816 11.4568 8.9129 49.8477 0.0000 8.1665
72 24 1.2324 12.8555 10.1384 51.6488 0.0000 7.8279
73 24 0.5758 11.5650 11.2511 63.3879 0.0000 7.8001
74 24 1.2888 12.7557 12.5344 63.4559 0.0000 7.8434
75 24 -0.5678 11.6046 14.5562 56.1259 0.0000 8.3959
76 24 1.6234 13.3470 15.8846 55.5188 0.0000 9.1529
77 24 -0.0104 11.2542 17.8075 60.0465 0.0000 9.7554
78 24 1.9320 13.5777 19.4818 54.7114 0.0000 8.1435
79 24 0.0270 11.6249 20.4566 61.5204 0.0000 9.8457
80 24 0.9073 13.1372 21.9598 48.1580 0.0000 8.1527
81 24 0.2090 14.5234 0.3698 56.8823 0.0000 7.6126
82 24 1.0847 15.5801 1.6911 51.3354 0.0000 7.5100
83 24 0.1998 14.6448 2.5176 57.4116 0.0000 9.2349
84 24 1.5181 15.5043 4.2248 49.1258 0.0000 7.8363
85 24 0.1744 14.0369 5.7153 44.3677 0.0000 9.7207
86 24 1.1922 16.1157 7.1991 44.8134 0.0000 9.2717
87 24 0.0277 13.9206 8.5060 54.6958 0.0000 7.8141
88 24 1.1861 15.8117 10.3998 58.0322 0.0000 9.0663
89 24 0.2574 14.0938 11.5308 53.9867 0.0000 8.0077
90 24 1.3605 15.7728 13.2939 59.5506 0.0000 7.9271
91 24 -0.1107 15.1009 14.3410 56.8761 0.0000 9.3857
92 24 1.4395 16.4185 16.2879 50.6559 0.0000 8.2428
93 24 0.2242 13.8450 17.0592 45.0143 0.0000 7.7769
94 24 1.1815 16.2413 19.0879 55.2941 0.0000 7.6116
95 24 0.0200 14.8314 19.8909 50.3486 0.0000 8.1918
96 24 1.6768 16.1624 21.3868 56.8393 0.0000 9.1571
97 24 -0.3874 17.6456 -0.0601 60.2151 0.0000 8.9432
98 24 1.1885 19.1724 1.4424 47.6556 0.0000 9.8655
99 24 -0.2087 17.4678 2.9462 46.0969 0.0000 7.4917
100 24 1.6412 19.3766 4.2986 46.4792 0.0000 8.7425
101 24 -0.5861 17.2802 6.1036 50.8353 0.0000 7.9218
102 24 1.6931 18.8565 7.5866 63.5187 0.0000 8.7032
103 24 0.2780 17.2347 8.9986 50.9917 0.0000 7.4345
104 24 2.4090 18.4710 9.5616 47.1127 0.0000 8.4341
105 24 -0.0438 17.7523 11.9672 48.6027 0.0000 9.7741
106 24 1.5564 19.1445 12.9442 44.1696 0.0000 8.8735
107 24 -0.1011 17.8433 14.6437 53.8183 0.0000 8.1152
108 24 1.7098 19.1759 15.9268 57.2268 0.0000 7.9254
109 24 -0.0329 17.4216 17.3242 52.4936 0.0000 8.3071
110 24 1.5775 19.0695 19.1119 62.5553 0.0000 7.6415
111 24 0.0190 17.6695 20.2030 62.3230 0.0000 8.3144
112 24 1.7784 19.5212 21.8419 51.1007 0.0000 9.6104
113 24 0.1336 20.0398 -0.2598 59.5322 0.0000 9.8793
114 24 1.7563 21.6531 0.8946 46.8377 0.0000 9.4389
115 24 -0.0518 19.9221 2.4995 62.6115 0.0000 7.7410
116 24 1.2663 22.1882 4.3106 61.4446 0.0000 8.2254
117 24 -0.4203 20.0108 6.3525 52.7045 0.0000 8.0257
118 24 1.3066 22.3584 6.8115 62.6832 0.0000 9.0524
119 24 -0.2404 19.9893 8.7261 48.8516 0.0000 7.6971
120 24 0.8055 22.1540 9.7551 52.7742 0.0000 8.6075
121 24 0.0264 19.9081 11.1920 63.9434 0.0000 7.8234
122 24 1.9095 22.0491 12.4719 54.7495 0.0000 8.5746
123 24 -0.0247 20.4083 14.7118 51.6963 0.0000 8.2439
124 24 1.0781 21.9225 16.2717 56.7363 0.0000 8.2298
125 24 0.5558 20.2983 17.4183 48.1350 0.0000 7.8391
126 24 1.9060 22.2183 18.7851 46.7225 0.0000 7.9371
127 24 0.1725 20.4648 20.5388 47.1366 0.0000 9.5264
128 24 1.6782 21.6078 21.7999 58.0320 0.0000 7.9993
129 24 2.5364 0.1753 -0.2500 51.0144 0.0000 9.1835
130 24 4.3654 1.3785 1.1702 49.2448 0.0000 8.4103
131 24 2.8934 0.3013 3.5027 45.3692 0.0000 8.3954
132 24 4.0990 1.2101 4.4687 46.3720 0.0000 8.2475
133 24 2.3957 0.4571 6.5369 43.6852 0.0000 9.7820
134 24 4.4701 1.0782 7.1472 45.8512 0.0000 9.0809
135 24 3.0875 -0.1027 8.6618 60.6870 0.0000 7.5105
136 24 4.0480 1.5134 10.2974 50.6578 0.0000 8.1591
137 24 2.9815 0.0233 11.4965 57.2207 0.0000 7.9795
138 24 4.6163 1.6033 13.0599 46.2634 0.0000 9.4291
139 24 2.3646 0.1400 15.2614 56.4055 0.0000 7.5103
140 24 4.2595 1.2444 15.9682 57.6095 0.0000 9.3230
141 24 2.3374 0.0047 17.4751 47.5271 0.0000 7.5011
142 24 4.4161 1.5181 19.1571 52.4852 0.0000 8.1501
143 24 3.2560 0.5052 20.1127 44.4683 0.0000 9.2906
144 24 3.5349 1.5144 22.2071 43.6902 0.0000 8.8242
145 24 2.9578 3.0120 0.0645 58.8753 0.0000 8.5844
146 24 4.6969 4.6908 2.0703 55.1003 0.0000 8.4916
147 24 3.3805 3.5221 3.2155 52.4690 0.0000 9.9897
148 24 4.1805 4.2846 4.6825 63.0788 0.0000 7.5429
149 24 2.4652 2.6293 6.1203 60.2215 0.0000 8.7198
150 24 4.2171 4.2038 7.1665 56.6295 0.0000 8.9401
151 24 2.9519 3.0134 8.6108 45.0926 0.0000 8.8110
152 24 4.3746 4.3142 10.1644 45.7384 0.0000 7.8803
153 24 2.8293 2.7962 11.9319 57.4017 0.0000 9.7802
154 24 4.1506 4.1693 13.2259 55.5372 0.0000 9.4441
155 24 3.1805 3.4159 14.6903 54.1789 0.0000 9.4735
156 24 3.4526 4.6323 16.3199 55.2421 0.0000 8.0017
157 24 2.1062 2.6468 17.0593 64.2216 0.0000 8.6401
158 24 4.3082 4.2623 18.7314 62.9237 0.0000 9.1839
159 24 2.8059 2.4769 20.5290 55.5613 0.0000 8.5305
160 24 4.3079 3.7397 21.8943 53.8606 0.0000 9.5480
161 24 2.7591 6.4466 0.1422 58.8155 0.0000 9.7073
162 24 4.1229 7.6396 1.4478 57.0030 0.0000 8.0413
163 24 2.5765 5.7593 3.0583 44.0764 0.0000 7.5891
164 24 4.7040 7.2138 4.4769 54.3853 0.0000 9.3307
165 24 2.9947 5.7914 5.8804 56.7787 0.0000 7.5365
166 24 4.5957 7.3719 6.7186 53.7422 0.0000 8.9674
167 24 3.3324 6.8995 9.5447 48.2425 0.0000 7.8158
168 24 4.1748 6.7839 10.1850 45.0571 0.0000 9.6885
169 24 2.7483 5.9817 11.6519 50.3598 0.0000 7.9600
170 24 4.1685 7.4354 13.1571 52.7625 0.0000 9.6103
171 24 3.0666 5.6971 14.3290 51.0223 0.0000 8.4361
172 24 4.1102 7.4727 16.1841 46.8032 0.0000 7.6294
173 24 2.7879 5.2341 17.3487 46.8111 0.0000 7.6545
174 24 4.2474 7.5557 18.3740 57.0443 0.0000 8.2598
175 24 2.5697 5.9123 20.0161 49.4180 0.0000 7.5512
176 24 4.4255 6.8194 21.7783 46.5805 0.0000 9.2160
177 24 2.8940 8.9293 -0.1402 47.5927 0.0000 8.5839
178 24 4.0944 10.2160 1.0115 44.7075 0.0000 9.3369
179 24 2.6615 9.0979 2.6963 54.8458 0.0000 8.4486
180 24 4.4122 10.7837 4.1791 44.5831 0.0000 9.9916
181 24 2.9362 8.4532 5.4892 63.9684 0.0000 9.1030
182 24 3.9282 10.2814 7.1596 58.9492 0.0000 9.3910
183 24 2.8823 8.4967 8.6886 62.5187 0.0000 9.2595
184 24 4.3756 9.7657 10.4070 60.2872 0.0000 8.0910
185 24 3.2686 9.2671 11.8361 57.4609 0.0000 7.7184
186 24 4.3898 10.0361 12.9534 57.7762 0.0000 8.4670
187 24 2.7859 8.1904 14.4079 50.0863 0.0000 8.2841
188 24 4.2967 10.1326 16.0091 50.3347 0.0000 8.4861
189 24 2.3922 8.3465 17.4756 63.1562 0.0000 8.4720
190 24 4.5794 9.8076 18.6514 56.0520 0.0000 9.9179
191 24 3.4624 9.1371 20.1746 58.3036 0.0000 10.0000
192 24 4.8313 9.5898 22.1573 51.9734 0.0000 8.7354
193 24 2.4417 11.9579 0.3653 54.2878 0.0000 8.9804
194 24 4.4538 12.8061 1.6255 56.6481 0.0000 7.5330
195 24 3.0222 11.1795 2.9664 55.4086 0.0000 8.3831
196 24 4.4203 13.4581 4.6618 53.5433 0.0000 7.9075
197 24 3.0036 11.3567 5.9155 56.3242 0.0000 9.6130
198 24 3.7059 13.1448 7.0104 54.7364 0.0000 7.6201
199 24 3.0849 12.6283 8.8399 50.0822 0.0000 9.7463
200 24 4.6057 13.2646 10.1038 53.1434 0.0000 9.2471
201 24 2.7423 12.5492 10.9665 45.4962 0.0000 9.6902
202 24 4.2612 13.1647 13.1475 60.3456 0.0000 8.5709
203 24 3.2339 11.3662 14.4755 46.5847 0.0000 8.9891
204 24 4.3956 12.6274 16.3422 44.7844 0.0000 7.8832
205 24 2.9653 11.5066 17.4155 49.7128 0.0000 9.6564
206 24 3.8010 12.8573 19.5369 63.6380 0.0000 7.6408
207 24 3.2122 11.5938 20.4160 44.7953 0.0000 7.8404
208 24 4.4124 13.3684 21.5402 63.3180 0.0000 8.2938
209 24 3.1738 14.9076 0.2680 45.6904 0.0000 9.7005
210 24 4.4800 15.6193 1.8488 54.0421 0.0000 9.3009
211 24 2.7963 14.9823 3.0226 45.7095 0.0000 8.8449
212 24 4.7742 16.0561 4.1824 63.8184 0.0000 8.2147
213 24 3.0937 14.5454 5.6907 61.2623 0.0000 9.4049
214 24 3.9686 15.7248 7.4589 59.5064 0.0000 9.0756
215 24 3.2980 14.4991 8.6355 50.2813 0.0000 8.9737
216 24 4.5692 16.0204 10.1662 50.4251 0.0000 9.1846
217 24 2.8819 14.5756 11.8598 62.1603 0.0000 8.2670
218 24 4.2399 16.0440 13.0553 55.3370 0.0000 9.3306
219 24 3.2527 14.4392 14.3892 51.6562 0.0000 9.8925
220 24 4.0753 16.0550 15.9797 57.8785 0.0000 7.7936
221 24 3.0521 14.6773 17.7633 50.3945 0.0000 7.5451
222 24 4.1318 16.2203 18.7914 60.4986 0.0000 7.4778
223 24 2.5919 13.7573 20.0648 52.1575 0.0000 7.5630
224 24 4.6914 16.0555 22.0611 60.7903 0.0000 9.4368
225 24 2.6488 17.0716 -0.1989 57.7131 0.0000 9.4847
226 24 3.9195 18.7696 1.3446 52.6695 0.0000 9.3187
227 24 3.1173 17.6705 3.0953 48.4624 0.0000 9.5546
228 24 4.2979 18.9261 4.5316 54.1387 0.0000 7.6649
229 24 2.8546 17.6050 5.6674 43.3815 0.0000 7.6341
230 24 4.5921 19.1055 7.1760 52.9782 0.0000 9.7803
231 24 3.5573 17.3129 9.0938 58.4508 0.0000 8.9886
232 24 5.1258 19.1551 10.0233 52.8449 0.0000 9.2718
233 24 2.7541 17.4766 11.4434 46.9152 0.0000 8.2795
234 24 4.2925 18.7831 12.8806 46.5719 0.0000 8.1273
235 24 2.4024 16.8142 14.6367 52.2020 0.0000 9.9959
236 24 4.5257 18.8407 15.8568 49.3273 0.0000 8.0364
237 24 2.9592 17.7598 16.7979 45.2467 0.0000 9.1652
238 24 4.3498 19.1140 18.6508 48.4275 0.0000 8.1062
239 24 2.1385 17.6380 20.7618 60.3900 0.0000 9.6438
240 24 4.5202 19.3442 21.7348 47.4426 0.0000 8.1592
241 24 2.8157 19.9893 -0.0208 62.6774 0.0000 8.6740
242 24 4.4472 22.2159 1.1962 59.6036 0.0000 9.1218
243 24 2.9779 20.6530 2.8589 54.2819 0.0000 9.9480
244 24 4.1890 22.4079 4.7343 55.9842 0.0000 9.4717
245 24 2.9111 20.1324 5.7097 47.8743 0.0000 8.9929
246 24 4.3294 21.7628 7.5235 47.9019 0.0000 7.6328
247 24 2.7939 20.2432 8.7940 63.2528 0.0000 9.0559
248 24 4.1667 21.5661 9.7805 61.2337 0.0000 9.8657
249 24 3.2820 20.2034 11.6696 62.1682 0.0000 7.5623
250 24 4.4299 21.8898 13.2122 61.6997 0.0000 8.9621
251 24 2.9670 20.0533 14.5894 56.7653 0.0000 9.5589
252 24 4.1263 21.9354 15.8404 56.3391 0.0000 7.6861
253 24 2.6970 20.1295 17.4457 47.0023 0.0000 9.6509
254 24 4.6114 21.1251 18.9880 59.7793 0.0000 9.2392
255 24 2.7374 20.2430 20.2227 48.4854 0.0000 9.9079
256 24 4.5914 21.4580 22.0116 53.4593 0.0000 7.9331
257 24 5.4428 0.2417 0.0175 56.4290 0.0000 7.5679
258 24 7.5016 2.1301 1.4211 47.1718 0.0000 9.8081
259 24 5.7002 -0.0323 2.9860 45.1499 0.0000 8.6551
260 24 7.6877 1.9108 4.2831 52.8837 0.0000 9.8390
261 24 6.2932 0.1338 5.8542 46.2996 0.0000 9.4024
262 24 7.7422 1.3957 7.4030 54.4395 0.0000 7.6654
263 24 5.4515 -0.0975 9.2069 54.4436 0.0000 8.9554
264 24 6.4606 1.7542 10.7454 63.1014 0.0000 7.6129
265 24 5.8761 -0.1652 11.3629 49.3883 0.0000 7.9190
266 24 7.5027 0.8761 12.8551 59.8451 0.0000 9.2637
267 24 5.2717 0.4741 14.4293 49.4547 0.0000 7.6314
268 24 7.2650 0.9647 15.7987 61.8385 0.0000 7.4748
269 24 5.0902 -0.0107 17.2487 46.5797 0.0000 10.0478
270 24 7.7408 1.9948 19.1433 55.1176 0.0000 9.8815
271 24 5.9726 0.1488 20.0575 43.7509 0.0000 7.6080
272 24 7.5344 1.5641 21.5002 58.8446 0.0000 9.9496
273 24 6.1816 3.4598 0.1056 64.0003 0.0000 7.7213
274 24 7.4918 4.7404 2.0005 57.4452 0.0000 7.5991
275 24 5.3876 3.2445 2.8124 52.5515 0.0000 9.5439
276 24 6.8704 4.6344 4.4979 59.8377 0.0000 9.9395
277 24 5.4658 2.5379 6.1409 45.4498 0.0000 8.3513
278 24 7.5787 4.1920 7.3740 63.9952 0.0000 7.6248
279 24 5.5172 2.6546 8.2755 54.9627 0.0000 9.1029
280 24 7.1481 4.7663 10.2690 43.6712 0.0000 8.0103
281 24 5.6393 2.9244 11.3597 49.7174 0.0000 9.0208
282 24 7.3949 4.4787 13.2311 51.6579 0.0000 9.7915
283 24 5.8525 3.3174 14.7640 63.1711 0.0000 7.9820
284 24 7.4390 4.6341 15.9246 44.1922 0.0000 10.0084
285 24 5.9636 2.7307 17.2639 49.1478 0.0000 9.2569
286 24 7.4044 3.8868 18.7315 58.5922 0.0000 9.6632
287 24 5.2271 2.9436 20.7194 63.1895 0.0000 9.7297
288 24 7.2255 4.2000 21.8272 61.6870 0.0000 9.8567
289 24 5.7576 5.2934 -0.3713 61.5895 0.0000 8.1448
290 24 7.2358 7.1908 0.8668 43.0161 0.0000 9.2374
291 24 5.4818 5.4915 3.2799 62.7356 0.0000 9.6705
292 24 7.2945 7.6447 4.9572 47.3828 0.0000 7.5888
293 24 5.3800 5.2821 5.6268 60.5467 0.0000 9.3590
294 24 7.1131 7.5938 7.5140 60.7948 0.0000 7.5178
295 24 5.5073 5.6891 8.6279 54.5487 0.0000 7.4758
296 24 7.4464 7.6329 10.1416 63.8375 0.0000 9.0305
297 24 5.6105 5.1580 11.8913 58.3679 0.0000 7.4996
298 24 7.2950 7.6061 12.9047 53.0911 0.0000 8.2023
299 24 5.8006 5.5089 14.1791 51.9162 0.0000 8.2800
300 24 7.1675 7.7346 15.8131 60.4688 0.0000 9.2861
301 24 5.4166 5.5536 17.3547 60.4975 0.0000 8.8207
302 24 7.1818 7.2138 18.2626 62.2437 0.0000 8.2739
303 24 5.4011 6.2426 20.8363 47.4128 0.0000 7.9434
304 24 6.9205 7.4460 21.9248 50.4978 0.0000 8.1782
305 24 5.8645 8.5742 0.3078 48.9787 0.0000 7.6155
306 24 7.5443 10.4229 1.2900 49.7450 0.0000 9.7917
307 24 5.8542 8.7913 2.8763 48.3109 0.0000 7.5067
308 24 7.3969 10.0672 4.1947 48.4225 0.0000 7.9508
309 24 5.5777 8.8959 5.4591 45.1085 0.0000 8.8443
310 24 6.4365 10.0315 7.1354 63.3972 0.0000 8.3549
311 24 5.7834 8.6363 8.6366 50.8025 0.0000 9.7764
312 24 6.9460 10.3171 10.2706 63.8413 0.0000 7.6243
313 24 5.6219 8.8547 11.6079 50.6258 0.0000 9.2064
314 24 6.8504 10.0471 12.7515 53.7584 0.0000 9.5318
315 24 6.3074 8.6500 14.7216 51.3635 0.0000 8.6056
316 24 7.0428 9.4643 15.7219 62.1314 0.0000 8.0344
317 24 6.2282 8.5453 17.5948 45.8577 0.0000 8.7640
318 24 7.8140 10.3658 18.4128 48.6970 0.0000 8.5870
319 24 5.9247 8.9161 20.5615 46.9246 0.0000 8.4811
320 24 6.6318 10.0201 21.7056 58.6560 0.0000 8.0358
321 24 5.5468 11.7924 0.6225 59.9077 0.0000 8.7210
322 24 7.2111 13.0634 1.2874 49.6867 0.0000 7.7486
323 24 6.2366 11.4929 3.2665 47.4761 0.0000 8.5402
324 24 6.5145 12.9217 3.5130 50.7347 0.0000 9.5168
325 24 6.1835 11.8206 5.7712 64.2868 0.0000 9.6342
326 24 8.0780 13.2467 6.7756 63.8892 0.0000 8.7698
327 24 5.5384 10.8329 8.4733 50.6512 0.0000 8.6137
328 24 7.0744 12.7042 10.0705 43.3336 0.0000 7.4895
329 24 5.3430 11.1969 11.5985 47.2951 0.0000 9.8273
330 24 7.2718 13.3140 13.5300 63.3308 0.0000 9.1547
331 24 5.5421 11.2244 14.7919 43.5134 0.0000 7.9335
332 24 7.5726 13.1411 15.9828 53.0357 0.0000 8.7741
333 24 5.7670 12.0104 17.7180 48.1950 0.0000 7.6904
334 24 6.8600 12.7876 18.6851 63.8942 0.0000 9.2464
335 24 5.5063 11.6904 20.7804 63.0905 0.0000 10.0282
336 24 7.5719 13.1020 22.2351 51.2433 0.0000 9.3178
337 24 6.1894 15.2416 0.4965 63.1396 0.0000 8.7147
338 24 7.2273 16.1231 1.2464 47.0593 0.0000 8.0475
339 24 5.7019 15.4150 2.8371 57.7651 0.0000 9.8901
340 24 7.1877 15.1697 4.7283 62.5098 0.0000 8.3162
341 24 5.8544 14.6311 6.0857 61.7575 0.0000 8.9291
342 24 6.8750 15.5894 7.5503 55.9486 0.0000 9.3166
343 24 5.3810 14.6668 8.7392 56.9403 0.0000 8.5349
344 24 7.2383 15.8626 9.8072 45.6797 0.0000 7.4777
345 24 5.6729 14.9746 11.8315 45.8144 0.0000 9.7227
346 24 7.3823 16.1930 12.8871 54.2929 0.0000 7.7625
347 24 5.7032 14.4997 14.8221 58.8967 0.0000 8.2353
348 24 6.5467 15.5596 15.8192 51.4779 0.0000 7.8957
349 24 5.6687 14.7395 17.1855 47.9681 0.0000 8.3511
350 24 7.5741 15.8570 18.9397 46.7056 0.0000 9.8010
351 24 5.9129 14.5332 20.2936 57.3992 0.0000 9.7992
352 24 6.9093 16.2536 21.9431 49.5531 0.0000 8.4940
353 24 5.6145 17.5022 -0.0036 48.6352 0.0000 9.0992
354 24 7.8529 18.5370 1.7187 55.5240 0.0000 7.4574
355 24 5.4567 17.2391 2.8075 52.3702 0.0000 9.8277
356 24 7.0442 18.6808 4.5658 51.7212 0.0000 9.1691
357 24 6.0197 17.4638 6.1904 63.7165 0.0000 9.3632
358 24 7.4434 18.9145 7.1341 56.2145 0.0000 9.3560
359 24 5.8916 17.3361 8.6567 63.9793 0.0000 9.7111
360 24 7.4116 18.8743 9.4766 52.4103 0.0000 8.1012
361 24 5.4823 17.7972 11.7717 48.4169 0.0000 9.0501
362 24 6.5768 19.1474 13.3665 51.3624 0.0000 9.3655
363 24 5.2827 17.6556 14.5171 49.3487 0.0000 8.3674
364 24 7.0297 18.6985 15.6592 61.8594 0.0000 8.8588
365 24 5.5196 17.8749 17.3739 64.1126 0.0000 9.0439
366 24 7.2049 18.3947 18.9086 47.9419 0.0000 9.9565
367 24 5.0412 16.8845 20.6222 48.2596 0.0000 9.6929
368 24 7.1102 19.0791 22.3080 44.7163 0.0000 9.1790
369 24 6.0366 20.0053 -0.0573 48.6139 0.0000 7.4687
370 24 7.4739 22.0693 1.4443 53.4807 0.0000 7.6704
371 24 5.7488 20.3872 2.6339 60.9589 0.0000 7.4398
372 24 6.8197 21.9225 3.9738 47.2961 0.0000 9.7893
373 24 5.8182 20.3538 5.9482 56.9168 0.0000 7.6958
374 24 7.3832 21.7382 6.9324 47.1906 0.0000 8.9775
375 24 6.3524 20.0405 7.9526 61.3988 0.0000 7.8127
376 24 7.4124 21.8346 9.9150 49.8280 0.0000 8.3988
377 24 5.3552 20.2004 11.6909 50.1577 0.0000 7.5810
378 24 7.2984 21.9738 13.5889 57.2126 0.0000 7.7940
379 24 5.9545 20.7069 14.8634 56.5299 0.0000 7.7006
380 24 7.3223 21.9134 16.2700 46.1252 0.0000 7.5543
381 24 5.5469 20.0170 18.0091 60.5419 0.0000 8.3439
382 24 7.7843 21.9105 18.6710 43.7017 0.0000 8.5822
383 24 5.3602 20.5032 20.9934 49.2897 0.0000 7.8908
384 24 7.4529 21.9316 21.9553 50.3087 0.0000 9.3462
385 24 8.5903 0.2690 -0.3123 59.8328 0.0000 8.2641
386 24 9.8797 1.9317 0.8923 54.1654 0.0000 7.9757
387 24 8.8948 0.4070 2.5908 57.4923 0.0000 8.6425
388 24 9.5287 1.2667 4.6695 47.2662 0.0000 7.5447
389 24 8.7693 0.1099 6.2949 54.1078 0.0000 8.6150
390 24 9.8212 1.5188 7.2828 52.1464 0.0000 8.4248
391 24 8.5869 -0.4086 8.7011 56.9839 0.0000 8.4518
392 24 10.1455 1.7646 10.3531 46.5569 0.0000 7.4428
393 24 8.3676 0.1331 11.6517 58.1582 0.0000 8.6128
394 24 9.9590 1.0262 13.0161 59.2663 0.0000 9.8163
395 24 9.1670 0.3465 14.2520 60.4737 0.0000 9.0046
396 24 10.5020 1.0067 15.9491 62.8126 0.0000 9.1845
397 24 8.9100 -0.0626 17.6184 44.9539 0.0000 8.6857
398 24 10.0118 0.9575 19.0493 48.7470 0.0000 9.9414
399 24 8.6710 -0.3897 20.0154 59.1627 0.0000 8.3161
400 24 10.3629 1.8361 21.3441 62.7758 0.0000 8.7425
401 24 8.6711 2.4551 0.1385 49.0394 0.0000 7.6970
402 24 10.5337 4.1830 0.7156 48.8644 0.0000 8.3559
403 24 8.9117 2.9459 2.0745 43.9248 0.0000 7.4936
404 24 9.6952 4.0594 4.1279 46.0864 0.0000 7.6784
405 24 9.0606 3.5900 5.4167 51.6385 0.0000 7.7467
406 24 9.6073 4.5005 7.0935 61.0079 0.0000 8.9821
407 24 8.3288 2.4532 8.5622 47.6107 0.0000 8.8162
408 24 10.0230 4.2167 10.0113 44.9929 0.0000 8.4495
409 24 8.9187 2.9483 11.6915 53.7145 0.0000 9.8131
410 24 10.2045 4.3893 12.1884 54.1853 0.0000 9.9134
411 24 8.8520 3.3439 14.4526 52.3700 0.0000 8.3490
412 24 9.9913 4.3883 15.8544 53.7510 0.0000 9.9183
413 24 8.4205 3.1878 17.4095 60.6637 0.0000 9.2162
414 24 10.2189 4.2864 18.8453 46.2535 0.0000 8.6626
415 24 8.8225 3.2836 20.0493 50.3228 0.0000 7.9409
416 24 9.7355 4.5638 22.6265 44.0661 0.0000 9.2922
417 24 9.1798 5.6902 0.5233 51.2872 0.0000 8.5627
418 24 10.3276 7.5818 1.9116 45.1169 0.0000 9.3953
419 24 9.3233 5.7074 2.5945 50.2665 0.0000 9.0517
420 24 10.1855 7.2587 4.2302 43.7055 0.0000 8.9119
421 24 8.5160 5.9065 5.5169 51.5026 0.0000 7.9131
422 24 10.5863 7.1736 7.0932 57.7247 0.0000 8.5115
423 24 8.7507 5.5986 8.5088 43.9046 0.0000 8.8576
424 24 10.1428 7.1496 10.0065 53.8570 0.0000 7.9760
425 24 8.6685 5.9028 11.7392 55.2613 0.0000 9.0039
426 24 10.0927 6.8530 13.0019 49.2310 0.0000 8.1910
427 24 8.9761 5.8274 14.1971 51.9850 0.0000 7.7274
428 24 10.2489 7.6712 15.6511 56.4284 0.0000 9.9932
429 24 8.9087 5.9147 17.4680 60.4237 0.0000 9.6258
430 24 10.2941 7.0795 18.8998 62.2100 0.0000 8.1950
431 24 8.7825 6.0561 20.5486 52.4289 0.0000 9.8525
432 24 10.1671 6.8533 21.8406 62.6568 0.0000 8.0856
433 24 8.7674 8.7851 -0.1345 62.5691 0.0000 8.0289
434 24 10.6154 10.5056 1.2215 57.5967 0.0000 7.9927
435 24 8.8445 9.0692 2.9502 46.8409 0.0000 7.9790
436 24 10.9040 9.8605 4.1439 60.3070 0.0000 8.2612
437 24 8.2120 8.5565 5.8583 59.4982 0.0000 9.5030
438 24 10.3922 10.1569 7.8574 62.9802 0.0000 9.0982
439 24 8.5860 8.8900 8.3961 45.7519 0.0000 7.8317
440 24 9.8998 10.6811 10.3654 47.0462 0.0000 8.3983
441 24 8.4731 8.5192 11.6347 43.4763 0.0000 7.5790
442 24 10.2844 10.7673 12.8221 43.9192 0.0000 10.0318
443 24 8.7086 8.4927 14.2965 63.9883 0.0000 9.7955
444 24 10.6565 10.0169 16.3389 50.9229 0.0000 9.0034
445 24 8.6716 8.6939 17.1596 60.1883 0.0000 9.3462
446 24 9.9293 10.6268 18.7239 44.6115 0.0000 8.2447
447 24 8.9479 9.2910 20.7127 51.0441 0.0000 9.4899
448 24 9.8325 10.5626 22.0378 64.3671 0.0000 7.6690
449 24 8.9634 11.5600 0.5362 61.9805 0.0000 8.9216
450 24 10.5534 12.9354 1.1045 60.3429 0.0000 8.4518
451 24 8.9450 11.6097 2.8052 51.5367 0.0000 8.2196
452 24 10.2779 12.8358 4.7860 53.7689 0.0000 8.3399
453 24 8.6835 11.2601 5.7278 46.9084 0.0000 9.4606
454 24 10.7214 13.2745 7.4407 50.9955 0.0000 10.0001
455 24 8.3279 11.3883 8.4919 42.9532 0.0000 9.9693
456 24 10.4582 13.3509 10.2812 44.7029 0.0000 9.2646
457 24 8.9904 11.6736 11.4785 47.3957 0.0000 8.4068
458 24 9.4211 13.2631 13.0211 47.7605 0.0000 8.5334
459 24 8.9212 11.7633 14.3384 60.4679 0.0000 8.7427
460 24 10.2565 13.2112 16.1607 46.8458 0.0000 9.9735
461 24 8.7614 11.6360 17.1251 49.3559 0.0000 9.1627
462 24 10.0027 13.7462 18.6602 52.5573 0.0000 7.9246
463 24 8.9356 11.6440 20.1946 46.5513 0.0000 8.0034
464 24 9.5956 13.2003 21.5117 63.3848 0.0000 10.0394
465 24 8.6389 14.8237 -0.1100 45.8461 0.0000 8.1787
466 24 9.9226 15.4581 1.7097 45.5063 0.0000 7.6364
467 24 8.7172 15.3666 3.0848 61.3933 0.0000 7.5697
468 24 10.7270 16.1949 4.1830 57.1101 0.0000 9.5937
469 24 8.5420 14.2996 5.4968 47.4392 0.0000 7.8005
470 24 10.1320 16.2475 7.2114 44.6145 0.0000 8.7357
471 24 8.8898 14.4312 8.3425 61.3138 0.0000 8.7119
472 24 10.2158 15.6975 9.7301 51.1799 0.0000 8.1735
473 24 9.0082 14.7396 11.5342 60.1225 0.0000 8.1833
474 24 10.2135 15.7668 13.6715 51.1018 0.0000 7.8303
475 24 9.1403 14.7128 14.6903 54.0502 0.0000 9.5094
476 24 10.0682 16.4618 16.0617 63.1501 0.0000 9.2413
477 24 8.4393 14.1615 17.7157 51.8352 0.0000 9.7627
478 24 9.9244 16.4069 18.8056 46.8950 0.0000 7.4409
479 24 8.6235 14.2227 19.9993 57.7906 0.0000 7.4601
480 24 10.6232 16.0252 22.1025 63.9675 0.0000 9.7300
481 24 8.7030 18.2548 0.4240 43.1681 0.0000 9.7197
482 24 10.1270 18.8220 0.7924 53.5331 0.0000 9.5246
483 24 8.5010 17.5049 3.0462 57.9397 0.0000 9.9188
484 24 10.0951 18.6100 4.2342 43.4644 0.0000 9.6892
485 24 9.0090 17.2270 5.8628 60.6675 0.0000 9.0526
486 24 10.7992 18.7545 7.1857 61.8436 0.0000 9.9808
487 24 8.0764 17.7044 8.5319 63.6218 0.0000 9.2263
488 24 10.3374 19.2399 10.4644 43.0419 0.0000 7.5907
489 24 8.5829 17.1219 11.3398 63.4468 0.0000 8.0194
490 24 10.1244 18.8949 12.8702 51.6951 0.0000 9.3034
491 24 8.4554 17.4784 14.6553 59.7990 0.0000 8.3197
492 24 10.2164 18.6360 15.8225 47.8851 0.0000 7.7236
493 24 8.6165 17.4775 17.4886 48.6536 0.0000 9.2343
494 24 10.0202 18.2342 18.6838 53.6965 0.0000 8.5790
495 24 8.5068 17.8238 20.0829 46.7650 0.0000 9.6068
496 24 10.2980 18.9287 22.0067 60.8432 0.0000 8.4435
497 24 8.8378 20.2786 0.0429 56.1084 0.0000 8.0846
498 24 9.6384 21.5988 1.6614 53.6479 0.0000 8.6876
499 24 8.4485 20.2137 3.0088 61.3549 0.0000 9.5294
500 24 10.2378 21.9944 4.9476 58.1191 0.0000 8.2423
501 24 8.5386 19.9810 5.0367 50.8936 0.0000 9.9783
502 24 9.9477 21.3318 7.3111 60.8663 0.0000 7.8319
503 24 9.0579 20.6509 8.4717 54.6595 0.0000 8.9384
504 24 10.4671 21.6522 10.0790 51.9399 0.0000 8.5666
505 24 8.8687 20.4438 11.4250 52.6285 0.0000 8.1930
506 24 10.0294 21.9317 13.0761 44.6649 0.0000 8.8976
507 24 9.3529 20.7183 15.0396 47.5189 0.0000 9.3449
508 24 9.9245 21.9742 16.3812 62.4820 0.0000 9.7876
509 24 8.9037 20.4393 17.3008 60.6095 0.0000 9.2483
510 24 10.2203 21.5039 18.8200 45.0947 0.0000 8.7128
511 24 8.8279 19.8849 20.4900 63.7721 0.0000 7.7094
512 24 10.4070 21.7174 22.2252 50.3101 0.0000 7.6880
513 24 11.9777 -0.2060 -0.0827 50.4462 0.0000 9.3614
514 24 13.3952 1.7693 1.2020 43.3739 0.0000 7.6937
515 24 12.1197 -0.2840 2.6730 63.8429 0.0000 9.4556
516 24 13.9564 1.4440 4.0202 60.6982 0.0000 7.6720
517 24 11.5437 -0.4948 5.8066 56.9768 0.0000 8.0095
518 24 13.2608 1.3133 7.4933 53.8196 0.0000 9.4644
519 24 11.2150 0.0417 9.1082 61.7698 0.0000 8.4959
520 24 12.9365 1.4004 9.8139 63.0295 0.0000 7.6051
521 24 11.4116 0.0429 11.5429 56.7541 0.0000 9.6734
522 24 12.3674 0.9778 13.1494 48.3744 0.0000 8.0463
523 24 10.7132 -0.0248 14.3705 62.8934 0.0000 8.2270
524 24 13.2143 1.3155 16.2968 43.0178 0.0000 9.9035
525 24 11.6416 -0.3459 17.5788 47.3834 0.0000 8.5573
526 24 13.0190 1.0656 18.7103 45.7507 0.0000 8.8995
527 24 11.7569 -0.2171 19.9303 44.6566 0.0000 7.4487
528 24 13.1088 1.3792 21.6822 57.8756 0.0000 7.9601
529 24 11.4255 2.6877 0.4274 46.8578 0.0000 8.7204
530 24 13.0161 4.2586 1.4780 47.3517 0.0000 9.2517
531 24 11.3566 3.1400 2.7188 60.7110 0.0000 9.7727
532 24 13.0758 4.5502 4.2158 48.7433 0.0000 9.5245
533 24 11.1828 3.1409 6.0661 50.0141 0.0000 9.7677
534 24 12.7194 4.6286 7.1996 52.7258 0.0000 7.8920
535 24 11.6390 2.7390 8.9750 46.7492 0.0000 7.5669
536 24 12.6526 4.4706 10.2319 63.1039 0.0000 7.4564
537 24 11.5017 2.8325 11.7209 55.9638 0.0000 8.1646
538 24 12.4509 4.0542 13.2385 50.9491 0.0000 9.3880
539 24 11.2981 2.7819 15.0383 55.0773 0.0000 7.6978
540 24 12.8526 4.4360 16.1161 43.6753 0.0000 9.5384
541 24 11.5399 2.6021 16.8052 60.8445 0.0000 8.4371
542 24 12.7689 4.9951 18.9802 48.6414 0.0000 8.2952
543 24 11.5058 3.0235 20.2703 44.4266 0.0000 8.5845
544 24 12.8605 4.6449 21.8874 44.4668 0.0000 7.6420
545 24 11.4624 5.9194 -0.4091 50.8850 0.0000 9.4687
546 24 12.8966 7.4390 1.1101 45.3648 0.0000 9.5758
547 24 11.9208 5.6024 2.8285 49.9615 0.0000 8.5834
548 24 13.0583 7.6495 3.8799 45.8365 0.0000 8.1607
549 24 11.6036 6.1011 6.4162 55.6373 0.0000 8.3373
550 24 13.4642 7.0249 7.2980 55.5267 0.0000 8.0205
551 24 12.0187 6.1372 8.7233 44.8493 0.0000 8.8228
552 24 13.3107 7.4703 10.4224 47.5658 0.0000 9.4307
553 24 11.3879 5.4577 11.5088 52.2230 0.0000 7.6113
554 24 13.5721 7.2869 12.6518 46.6036 0.0000 8.0626
555 24 11.6001 6.2609 14.8194 63.9268 0.0000 9.3101
556 24 13.3955 7.0597 15.4872 62.0880 0.0000 7.9968
557 24 11.5496 6.3234 17.5044 49.9844 0.0000 9.2464
558 24 13.1378 7.2894 18.6755 53.8745 0.0000 9.5444
559 24 11.2324 5.8449 20.6867 56.7242 0.0000 9.3200
560 24 12.8314 7.4810 21.7705 50.8650 0.0000 9.2655
561 24 10.9882 8.5773 -0.2681 57.3138 0.0000 9.8686
562 24 13.2888 10.3803 1.0102 46.6779 0.0000 7.7131
563 24 11.2758 8.6480 2.8955 46.7867 0.0000 9.6403
564 24 13.4900 10.5016 4.5953 45.9161 0.0000 8.8907
565 24 11.7566 8.6940 6.2025 54.1115 0.0000 8.2790
566 24 13.0522 10.5011 7.3758 51.0553 0.0000 8.8172
567 24 11.3051 8.5211 8.6686 51.0287 0.0000 9.0289
568 24 13.3598 9.7598 10.1992 56.8469 0.0000 9.5692
569 24 11.5362 8.5652 11.3877 56.5278 0.0000 8.3494
570 24 12.8720 9.8266 13.5524 62.7586 0.0000 8.8963
571 24 11.4022 8.3747 15.1361 46.1503 0.0000 7.9728
572 24 13.4084 10.1991 15.9255 44.3062 0.0000 9.5749
573 24 12.1800 8.9555 17.6427 54.6792 0.0000 8.4941
574 24 12.7389 10.4035 18.8837 58.0153 0.0000 8.3071
575 24 11.9904 8.7499 20.2678 49.3960 0.0000 7.5219
576 24 13.3917 10.7816 22.3579 44.2393 0.0000 8.6565
577 24 11.1507 11.4225 -0.2111 46.8542 0.0000 8.1656
578 24 13.0185 12.9021 1.5883 48.7923 0.0000 7.5037
579 24 11.2032 11.6342 2.9477 45.1398 0.0000 8.1799
580 24 13.4467 13.2869 4.0556 48.5056 0.0000 8.3556
581 24 11.8887 11.9689 5.8150 62.0092 0.0000 7.5658
582 24 13.1241 13.3263 7.0307 49.2148 0.0000 9.7173