ITEM: TIMESTEP
0
ITEM: NUMBER OF ATOMS
1024
ITEM: BOX BOUNDS pp pp pp
0.0 25.3200
0.0 25.3200
0.0 25.3200
ITEM: ATOMS id type x y z error strain stiffness
1 74 -0.0033 0.0001 -0.0000 0.1634 0.0000 0.0856
2 74 1.5805 1.5824 1.5820 0.2018 0.0000 0.0807
3 74 -0.0012 -0.0009 3.1648 0.1872 0.0000 0.0731
4 74 1.5841 1.5825 4.7456 0.2037 0.0000 0.0742
5 74 -0.0011 0.0001 6.3296 0.1603 0.0000 0.0922
6 74 1.5820 1.5834 7.9153 0.1911 0.0000 0.0836
7 74 -0.0010 0.0029 9.4929 0.1609 0.0000 0.0745
8 74 1.5819 1.5820 11.0772 0.1438 0.0000 0.0737
9 74 0.0013 0.0010 12.6593 0.1812 0.0000 0.0875
10 74 1.5830 1.5825 14.2401 0.1726 0.0000 0.0939
11 74 0.0013 0.0004 15.8235 0.1605 0.0000 0.0853
12 74 1.5814 1.5819 17.4094 0.1585 0.0000 0.0895
13 74 -0.0003 -0.0023 18.9896 0.1588 0.0000 0.0892
14 74 1.5813 1.5826 20.5726 0.1702 0.0000 0.0959
15 74 0.0004 -0.0010 22.1545 0.1497 0.0000 0.0829
16 74 1.5856 1.5837 23.7385 0.1846 0.0000 0.0937
17 74 -0.0010 3.1649 -0.0023 0.1884 0.0000 0.0830
18 74 1.5832 4.7452 1.5822 0.1671 0.0000 0.0840
19 74 0.0003 3.1648 3.1656 0.2085 0.0000 0.0796
20 74 1.5816 4.7486 4.7449 0.1861 0.0000 0.0798
21 74 0.0012 3.1651 6.3288 0.1586 0.0000 0.0969
22 74 1.5822 4.7463 7.9133 0.1839 0.0000 0.0813
23 74 -0.0011 3.1667 9.4960 0.1764 0.0000 0.0794
24 74 1.5820 4.7462 11.0772 0.1526 0.0000 0.0950
25 74 -0.0021 3.1643 12.6598 0.2072 0.0000 0.0964
26 74 1.5833 4.7482 14.2443 0.1891 0.0000 0.0874
27 74 -0.0009 3.1666 15.8233 0.1848 0.0000 0.0736
28 74 1.5827 4.7476 17.4071 0.1868 0.0000 0.0844
29 74 0.0001 3.1638 18.9909 0.1589 0.0000 0.0784
30 74 1.5835 4.7454 20.5735 0.1970 0.0000 0.0773
31 74 -0.0001 3.1645 22.1548 0.1591 0.0000 0.0959
32 74 1.5814 4.7472 23.7382 0.1958 0.0000 0.0873
33 74 0.0005 6.3293 0.0004 0.2115 0.0000 0.0846
34 74 1.5821 7.9115 1.5853 0.1937 0.0000 0.0803
35 74 0.0002 6.3305 3.1627 0.1709 0.0000 0.0749
36 74 1.5836 7.9119 4.7486 0.1822 0.0000 0.0736
37 74 0.0000 6.3309 6.3296 0.1784 0.0000 0.0981
38 74 1.5836 7.9121 7.9117 0.1879 0.0000 0.0787
39 74 0.0003 6.3297 9.4953 0.1829 0.0000 0.0976
40 74 1.5814 7.9131 11.0773 0.1532 0.0000 0.0843
41 74 -0.0012 6.3311 12.6593 0.2008 0.0000 0.0915
42 74 1.5811 7.9125 14.2436 0.1641 0.0000 0.0818
43 74 0.0004 6.3336 15.8264 0.1613 0.0000 0.0812
44 74 1.5820 7.9128 17.4080 0.1719 0.0000 0.0746
45 74 0.0012 6.3321 18.9887 0.1918 0.0000 0.0730
46 74 1.5827 7.9138 20.5725 0.1888 0.0000 0.0731
47 74 0.0011 6.3285 22.1549 0.1651 0.0000 0.0926
48 74 1.5831 7.9122 23.7405 0.1657 0.0000 0.0736
49 74 -0.0002 9.4945 0.0002 0.1648 0.0000 0.0951
50 74 1.5838 11.0755 1.5823 0.1865 0.0000 0.0851
51 74 0.0011 9.4946 3.1641 0.1574 0.0000 0.0841
52 74 1.5824 11.0768 4.7487 0.2076 0.0000 0.0871
53 74 0.0000 9.4963 6.3308 0.1699 0.0000 0.0798
54 74 1.5828 11.0783 7.9124 0.2107 0.0000 0.0833
55 74 0.0019 9.4942 9.4934 0.1689 0.0000 0.0751
56 74 1.5832 11.0767 11.0749 0.1613 0.0000 0.0967
57 74 -0.0010 9.4936 12.6595 0.1880 0.0000 0.0830
58 74 1.5829 11.0781 14.2446 0.1707 0.0000 0.0911
59 74 0.0012 9.4964 15.8239 0.1492 0.0000 0.0915
60 74 1.5837 11.0772 17.4071 0.1830 0.0000 0.0741
61 74 0.0011 9.4934 18.9919 0.1521 0.0000 0.0846
62 74 1.5815 11.0775 20.5735 0.2072 0.0000 0.0781
63 74 0.0003 9.4960 22.1543 0.1938 0.0000 0.0901
64 74 1.5818 11.0775 23.7383 0.1415 0.0000 0.0980
65 74 -0.0002 12.6587 -0.0008 0.1557 0.0000 0.0744
66 74 1.5832 14.2418 1.5848 0.1459 0.0000 0.0849
67 74 -0.0001 12.6603 3.1665 0.1939 0.0000 0.0952
68 74 1.5796 14.2396 4.7457 0.1738 0.0000 0.0889
69 74 -0.0023 12.6591 6.3315 0.1998 0.0000 0.0900
70 74 1.5829 14.2439 7.9127 0.1583 0.0000 0.0815
71 74 -0.0006 12.6598 9.4951 0.1950 0.0000 0.0736
72 74 1.5820 14.2449 11.0772 0.1569 0.0000 0.0974
73 74 -0.0031 12.6616 12.6605 0.1458 0.0000 0.0778
74 74 1.5819 14.2424 14.2413 0.1829 0.0000 0.0921
75 74 -0.0016 12.6618 15.8253 0.1952 0.0000 0.0867
76 74 1.5810 14.2430 17.4054 0.1893 0.0000 0.0762
77 74 0.0001 12.6595 18.9894 0.1904 0.0000 0.0819
78 74 1.5821 14.2413 20.5737 0.1826 0.0000 0.0813
79 74 -0.0004 12.6598 22.1550 0.1778 0.0000 0.0809
80 74 1.5815 14.2399 23.7366 0.1821 0.0000 0.0932
81 74 -0.0029 15.8242 -0.0006 0.1885 0.0000 0.0875
82 74 1.5859 17.4078 1.5827 0.1421 0.0000 0.0899
83 74 -0.0013 15.8248 3.1651 0.2106 0.0000 0.0835
84 74 1.5829 17.4065 4.7474 0.1433 0.0000 0.0848
85 74 0.0016 15.8252 6.3285 0.1551 0.0000 0.0806
86 74 1.5805 17.4075 7.9125 0.1603 0.0000 0.0898
87 74 -0.0002 15.8244 9.4967 0.1583 0.0000 0.0972
88 74 1.5843 17.4083 11.0791 0.1754 0.0000 0.0813
89 74 0.0020 15.8237 12.6602 0.1456 0.0000 0.0809
90 74 1.5825 17.4061 14.2428 0.2013 0.0000 0.0777
91 74 -0.0006 15.8251 15.8251 0.2068 0.0000 0.0875
92 74 1.5819 17.4068 17.4072 0.1515 0.0000 0.0894
93 74 0.0005 15.8250 18.9901 0.1613 0.0000 0.0804
94 74 1.5833 17.4064 20.5737 0.1774 0.0000 0.0928
95 74 0.0010 15.8258 22.1561 0.2034 0.0000 0.0901
96 74 1.5837 17.4086 23.7376 0.1993 0.0000 0.0879
97 74 -0.0014 18.9902 -0.0006 0.1450 0.0000 0.0956
98 74 1.5835 20.5719 1.5821 0.1414 0.0000 0.0827
99 74 -0.0011 18.9899 3.1655 0.1447 0.0000 0.0983
100 74 1.5812 20.5728 4.7480 0.1840 0.0000 0.0918
101 74 0.0017 18.9890 6.3294 0.1620 0.0000 0.0850
102 74 1.5827 20.5714 7.9123 0.1427 0.0000 0.0923
103 74 0.0002 18.9903 9.4973 0.2107 0.0000 0.0740
104 74 1.5813 20.5718 11.0788 0.1524 0.0000 0.0962
105 74 -0.0006 18.9897 12.6597 0.1640 0.0000 0.0942
106 74 1.5820 20.5716 14.2439 0.2063 0.0000 0.0768
107 74 -0.0001 18.9920 15.8264 0.1653 0.0000 0.0806
108 74 1.5838 20.5713 17.4073 0.1807 0.0000 0.0929
109 74 -0.0018 18.9906 18.9903 0.1424 0.0000 0.0920
110 74 1.5820 20.5725 20.5730 0.1799 0.0000 0.0911
111 74 -0.0003 18.9893 22.1560 0.1923 0.0000 0.0959
112 74 1.5809 20.5724 23.7385 0.1694 0.0000 0.0777
113 74 -0.0006 22.1556 0.0009 0.2062 0.0000 0.0876
114 74 1.5814 23.7374 1.5814 0.1879 0.0000 0.0795
115 74 -0.0001 22.1547 3.1674 0.1816 0.0000 0.0893
116 74 1.5815 23.7374 4.7468 0.2107 0.0000 0.0960
117 74 -0.0009 22.1562 6.3306 0.1519 0.0000 0.0834
118 74 1.5834 23.7375 7.9112 0.1664 0.0000 0.0746
119 74 0.0002 22.1562 9.4951 0.1674 0.0000 0.0880
120 74 1.5838 23.7363 11.0762 0.1476 0.0000 0.0927
121 74 -0.0007 22.1541 12.6613 0.1466 0.0000 0.0836
122 74 1.5824 23.7370 14.2413 0.1760 0.0000 0.0933
123 74 0.0007 22.1554 15.8258 0.1930 0.0000 0.0820
124 74 1.5822 23.7343 17.4076 0.1827 0.0000 0.0882
125 74 0.0003 22.1556 18.9888 0.1544 0.0000 0.0968
126 74 1.5825 23.7372 20.5719 0.2071 0.0000 0.0792
127 74 -0.0012 22.1546 22.1548 0.2096 0.0000 0.0874
128 74 1.5828 23.7361 23.7374 0.1867 0.0000 0.0803
129 74 3.1650 0.0019 0.0020 0.1675 0.0000 0.0846
130 74 4.7464 1.5833 1.5848 0.2059 0.0000 0.0861
131 74 3.1661 -0.0002 3.1665 0.1998 0.0000 0.0917
132 74 4.7482 1.5808 4.7466 0.1833 0.0000 0.0788
133 74 3.1633 0.0013 6.3309 0.1764 0.0000 0.0938
134 74 4.7485 1.5807 7.9140 0.1580 0.0000 0.0866
135 74 3.1652 0.0000 9.4952 0.2018 0.0000 0.0932
136 74 4.7463 1.5817 11.0784 0.2016 0.0000 0.0949
137 74 3.1650 0.0002 12.6598 0.1787 0.0000 0.0890
138 74 4.7472 1.5828 14.2437 0.1552 0.0000 0.0882
139 74 3.1643 -0.0006 15.8252 0.2019 0.0000 0.0963
140 74 4.7472 1.5815 17.4080 0.1693 0.0000 0.0967
141 74 3.1641 -0.0019 18.9899 0.2066 0.0000 0.0844
142 74 4.7479 1.5829 20.5730 0.1514 0.0000 0.0889
143 74 3.1662 -0.0015 22.1553 0.1667 0.0000 0.0832
144 74 4.7466 1.5819 23.7380 0.1801 0.0000 0.0771
145 74 3.1649 3.1642 0.0015 0.1566 0.0000 0.0861
146 74 4.7477 4.7479 1.5805 0.1665 0.0000 0.0819
147 74 3.1648 3.1645 3.1653 0.1889 0.0000 0.0824
148 74 4.7478 4.7490 4.7484 0.2084 0.0000 0.0849
149 74 3.1651 3.1650 6.3304 0.1449 0.0000 0.0890
150 74 4.7473 4.7471 7.9133 0.1421 0.0000 0.0879
151 74 3.1665 3.1680 9.4931 0.2110 0.0000 0.0826
152 74 4.7480 4.7472 11.0786 0.1933 0.0000 0.0746
153 74 3.1657 3.1661 12.6586 0.1522 0.0000 0.0971
154 74 4.7476 4.7480 14.2428 0.1436 0.0000 0.0968
155 74 3.1646 3.1650 15.8251 0.1479 0.0000 0.0959
156 74 4.7485 4.7467 17.4067 0.2100 0.0000 0.0754
157 74 3.1639 3.1650 18.9898 0.1538 0.0000 0.0973
158 74 4.7470 4.7466 20.5724 0.1592 0.0000 0.0862
159 74 3.1626 3.1643 22.1551 0.1558 0.0000 0.0879
160 74 4.7474 4.7488 23.7387 0.1475 0.0000 0.0729
161 74 3.1667 6.3308 0.0002 0.1541 0.0000 0.0946
162 74 4.7458 7.9135 1.5818 0.1879 0.0000 0.0925
163 74 3.1645 6.3306 3.1652 0.1751 0.0000 0.0982
164 74 4.7475 7.9117 4.7485 0.1827 0.0000 0.0881
165 74 3.1654 6.3296 6.3283 0.1518 0.0000 0.0943
166 74 4.7466 7.9113 7.9122 0.1903 0.0000 0.0977
167 74 3.1636 6.3289 9.4936 0.1725 0.0000 0.0876
168 74 4.7486 7.9142 11.0772 0.1992 0.0000 0.0846
169 74 3.1649 6.3289 12.6600 0.1483 0.0000 0.0926
170 74 4.7480 7.9126 14.2426 0.1458 0.0000 0.0796
171 74 3.1654 6.3292 15.8250 0.1726 0.0000 0.0898
172 74 4.7488 7.9140 17.4074 0.1476 0.0000 0.0965
173 74 3.1651 6.3307 18.9903 0.2067 0.0000 0.0837
174 74 4.7473 7.9133 20.5724 0.2042 0.0000 0.0864
175 74 3.1648 6.3301 22.1559 0.1834 0.0000 0.0929
176 74 4.7477 7.9143 23.7368 0.2016 0.0000 0.0890
177 74 3.1650 9.4962 0.0000 0.1704 0.0000 0.0945
178 74 4.7473 11.0763 1.5834 0.1650 0.0000 0.0985
179 74 3.1673 9.4983 3.1674 0.2025 0.0000 0.0792
180 74 4.7483 11.0763 4.7479 0.1835 0.0000 0.0835
181 74 3.1642 9.4954 6.3303 0.1885 0.0000 0.0888
182 74 4.7490 11.0774 7.9145 0.1802 0.0000 0.0926
183 74 3.1654 9.4933 9.4955 0.1699 0.0000 0.0857
184 74 4.7474 11.0780 11.0796 0.1983 0.0000 0.0883
185 74 3.1654 9.4935 12.6596 0.1495 0.0000 0.0729
186 74 4.7485 11.0780 14.2412 0.1452 0.0000 0.0823
187 74 3.1648 9.4935 15.8254 0.1778 0.0000 0.0973
188 74 4.7490 11.0782 17.4089 0.1726 0.0000 0.0814
189 74 3.1659 9.4934 18.9902 0.1433 0.0000 0.0806
190 74 4.7468 11.0778 20.5719 0.2023 0.0000 0.0974
191 74 3.1666 9.4951 22.1543 0.1960 0.0000 0.0895
192 74 4.7480 11.0787 23.7375 0.1915 0.0000 0.0935
193 74 3.1639 12.6603 0.0000 0.1731 0.0000 0.0743
194 74 4.7474 14.2432 1.5813 0.1881 0.0000 0.0841
195 74 3.1653 12.6605 3.1639 0.1836 0.0000 0.0909
196 74 4.7484 14.2423 4.7488 0.1652 0.0000 0.0816
197 74 3.1661 12.6594 6.3312 0.1750 0.0000 0.0906
198 74 4.7473 14.2415 7.9118 0.1444 0.0000 0.0744
199 74 3.1665 12.6585 9.4944 0.1808 0.0000 0.0840
200 74 4.7476 14.2413 11.0782 0.1569 0.0000 0.0756
201 74 3.1643 12.6613 12.6587 0.2051 0.0000 0.0909
202 74 4.7494 14.2418 14.2422 0.1754 0.0000 0.0886
203 74 3.1639 12.6612 15.8249 0.1732 0.0000 0.0754
204 74 4.7489 14.2416 17.4077 0.1441 0.0000 0.0939
205 74 3.1643 12.6590 18.9903 0.2069 0.0000 0.0935
206 74 4.7484 14.2414 20.5715 0.1892 0.0000 0.0738
207 74 3.1652 12.6619 22.1563 0.1855 0.0000 0.0963
208 74 4.7474 14.2426 23.7385 0.1565 0.0000 0.0936
209 74 3.1651 15.8235 -0.0017 0.1570 0.0000 0.0879
210 74 4.7468 17.4081 1.5826 0.1813 0.0000 0.0816
211 74 3.1644 15.8236 3.1654 0.1983 0.0000 0.0851
212 74 4.7484 17.4090 4.7481 0.1980 0.0000 0.0961
213 74 3.1643 15.8250 6.3304 0.1984 0.0000 0.0810
214 74 4.7465 17.4058 7.9115 0.1699 0.0000 0.0751
215 74 3.1648 15.8264 9.4947 0.1569 0.0000 0.0974
216 74 4.7467 17.4081 11.0767 0.1912 0.0000 0.0851
217 74 3.1642 15.8233 12.6604 0.1846 0.0000 0.0797
218 74 4.7474 17.4079 14.2423 0.2114 0.0000 0.0851
219 74 3.1663 15.8225 15.8239 0.1819 0.0000 0.0828
220 74 4.7483 17.4082 17.4061 0.1494 0.0000 0.0947
221 74 3.1639 15.8267 18.9894 0.1975 0.0000 0.0918
222 74 4.7478 17.4084 20.5720 0.1900 0.0000 0.0893
223 74 3.1656 15.8255 22.1555 0.1518 0.0000 0.0943
224 74 4.7487 17.4079 23.7382 0.1794 0.0000 0.0783
225 74 3.1661 18.9892 -0.0001 0.1589 0.0000 0.0907
226 74 4.7493 20.5736 1.5835 0.1642 0.0000 0.0977
227 74 3.1643 18.9927 3.1649 0.1935 0.0000 0.0949
228 74 4.7486 20.5732 4.7471 0.1903 0.0000 0.0845
229 74 3.1664 18.9901 6.3292 0.2046 0.0000 0.0736
230 74 4.7468 20.5722 7.9104 0.1453 0.0000 0.0961
231 74 3.1643 18.9903 9.4935 0.1452 0.0000 0.0801
232 74 4.7479 20.5718 11.0775 0.1423 0.0000 0.0786
233 74 3.1635 18.9892 12.6601 0.1525 0.0000 0.0884
234 74 4.7483 20.5716 14.2417 0.1584 0.0000 0.0800
235 74 3.1643 18.9890 15.8261 0.1818 0.0000 0.0842
236 74 4.7454 20.5728 17.4065 0.1547 0.0000 0.0786
237 74 3.1644 18.9899 18.9888 0.1553 0.0000 0.0895
238 74 4.7475 20.5706 20.5720 0.1725 0.0000 0.0942
239 74 3.1654 18.9916 22.1551 0.1729 0.0000 0.0956
240 74 4.7467 20.5704 23.7368 0.1541 0.0000 0.0920
241 74 3.1656 22.1529 0.0001 0.1797 0.0000 0.0913
242 74 4.7483 23.7386 1.5825 0.1961 0.0000 0.0803
243 74 3.1627 22.1535 3.1646 0.1908 0.0000 0.0845
244 74 4.7484 23.7382 4.7472 0.1667 0.0000 0.0974
245 74 3.1648 22.1553 6.3311 0.1801 0.0000 0.0861
246 74 4.7490 23.7383 7.9125 0.1712 0.0000 0.0773
247 74 3.1640 22.1562 9.4938 0.2074 0.0000 0.0793
248 74 4.7462 23.7390 11.0781 0.2085 0.0000 0.0961
249 74 3.1653 22.1537 12.6606 0.1840 0.0000 0.0824
250 74 4.7461 23.7371 14.2408 0.1827 0.0000 0.0858
251 74 3.1648 22.1540 15.8257 0.2052 0.0000 0.0906
252 74 4.7467 23.7376 17.4086 0.1562 0.0000 0.0799
253 74 3.1665 22.1540 18.9913 0.1749 0.0000 0.0900
254 74 4.7475 23.7375 20.5721 0.1987 0.0000 0.0864
255 74 3.1673 22.1567 22.1543 0.1543 0.0000 0.0919
256 74 4.7477 23.7380 23.7387 0.2086 0.0000 0.0757
257 74 6.3295 -0.0009 -0.0012 0.1582 0.0000 0.0967
258 74 7.9111 1.5807 1.5831 0.1784 0.0000 0.0772
259 74 6.3298 -0.0015 3.1650 0.1797 0.0000 0.0906
260 74 7.9155 1.5823 4.7480 0.1863 0.0000 0.0876
261 74 6.3296 -0.0005 6.3320 0.1427 0.0000 0.0740
262 74 7.9145 1.5814 7.9118 0.1416 0.0000 0.0825
263 74 6.3313 -0.0008 9.4954 0.2007 0.0000 0.0847
264 74 7.9121 1.5829 11.0770 0.1874 0.0000 0.0846
265 74 6.3309 -0.0000 12.6599 0.1782 0.0000 0.0761
266 74 7.9127 1.5825 14.2413 0.1489 0.0000 0.0875
267 74 6.3291 -0.0007 15.8282 0.1935 0.0000 0.0824
268 74 7.9133 1.5818 17.4096 0.1579 0.0000 0.0835
269 74 6.3305 -0.0004 18.9868 0.2036 0.0000 0.0808
270 74 7.9129 1.5825 20.5726 0.1567 0.0000 0.0748
271 74 6.3297 -0.0011 22.1556 0.1635 0.0000 0.0797
272 74 7.9120 1.5825 23.7353 0.1840 0.0000 0.0843
273 74 6.3323 3.1667 0.0016 0.1682 0.0000 0.0784
274 74 7.9114 4.7474 1.5819 0.1682 0.0000 0.0765
275 74 6.3299 3.1641 3.1649 0.1986 0.0000 0.0829
276 74 7.9130 4.7485 4.7465 0.1423 0.0000 0.0974
277 74 6.3307 3.1671 6.3304 0.2112 0.0000 0.0953
278 74 7.9114 4.7482 7.9118 0.1602 0.0000 0.0948
279 74 6.3286 3.1655 9.4941 0.1793 0.0000 0.0940
280 74 7.9141 4.7462 11.0769 0.1621 0.0000 0.0740
281 74 6.3306 3.1639 12.6575 0.1742 0.0000 0.0839
282 74 7.9111 4.7463 14.2436 0.2037 0.0000 0.0775
283 74 6.3303 3.1647 15.8243 0.1707 0.0000 0.0948
284 74 7.9131 4.7492 17.4084 0.1974 0.0000 0.0772
285 74 6.3301 3.1651 18.9909 0.1971 0.0000 0.0941
286 74 7.9128 4.7472 20.5721 0.1526 0.0000 0.0886
287 74 6.3328 3.1633 22.1548 0.1785 0.0000 0.0754
288 74 7.9133 4.7493 23.7374 0.1474 0.0000 0.0923
289 74 6.3301 6.3286 -0.0027 0.1860 0.0000 0.0739
290 74 7.9123 7.9134 1.5841 0.1994 0.0000 0.0795
291 74 6.3320 6.3297 3.1640 0.1929 0.0000 0.0835
292 74 7.9131 7.9115 4.7482 0.1862 0.0000 0.0945
293 74 6.3316 6.3292 6.3312 0.1621 0.0000 0.0730
294 74 7.9115 7.9126 7.9116 0.1933 0.0000 0.0931
295 74 6.3298 6.3308 9.4972 0.1977 0.0000 0.0872
296 74 7.9115 7.9141 11.0753 0.2103 0.0000 0.0909
297 74 6.3285 6.3303 12.6598 0.1757 0.0000 0.0900
298 74 7.9130 7.9134 14.2444 0.1680 0.0000 0.0886
299 74 6.3306 6.3319 15.8246 0.2102 0.0000 0.0856
300 74 7.9128 7.9133 17.4082 0.1683 0.0000 0.0763
301 74 6.3306 6.3279 18.9899 0.1454 0.0000 0.0771
302 74 7.9132 7.9108 20.5726 0.1810 0.0000 0.0740
303 74 6.3300 6.3293 22.1553 0.1794 0.0000 0.0749
304 74 7.9120 7.9110 23.7362 0.1473 0.0000 0.0980
305 74 6.3280 9.4952 -0.0012 0.1933 0.0000 0.0826
306 74 7.9133 11.0768 1.5843 0.1592 0.0000 0.0948
307 74 6.3307 9.4946 3.1628 0.1600 0.0000 0.0809
308 74 7.9119 11.0780 4.7480 0.1987 0.0000 0.0799
309 74 6.3302 9.4947 6.3287 0.1668 0.0000 0.0734
310 74 7.9117 11.0750 7.9120 0.1415 0.0000 0.0925
311 74 6.3294 9.4963 9.4956 0.2031 0.0000 0.0761
312 74 7.9119 11.0776 11.0785 0.1556 0.0000 0.0928
313 74 6.3302 9.4949 12.6613 0.1974 0.0000 0.0933
314 74 7.9134 11.0784 14.2446 0.1769 0.0000 0.0743
315 74 6.3302 9.4932 15.8252 0.1640 0.0000 0.0982
316 74 7.9126 11.0764 17.4095 0.1822 0.0000 0.0968
317 74 6.3280 9.4951 18.9891 0.1885 0.0000 0.0962
318 74 7.9140 11.0754 20.5724 0.1784 0.0000 0.0936
319 74 6.3291 9.4942 22.1552 0.1414 0.0000 0.0850
320 74 7.9125 11.0766 23.7373 0.1651 0.0000 0.0840
321 74 6.3297 12.6587 0.0003 0.2076 0.0000 0.0740
322 74 7.9136 14.2439 1.5843 0.1550 0.0000 0.0730
323 74 6.3315 12.6606 3.1655 0.1611 0.0000 0.0736
324 74 7.9109 14.2423 4.7488 0.1579 0.0000 0.0784
325 74 6.3295 12.6613 6.3283 0.1647 0.0000 0.0924
326 74 7.9133 14.2433 7.9137 0.1953 0.0000 0.0760
327 74 6.3288 12.6612 9.4953 0.1553 0.0000 0.0899
328 74 7.9125 14.2415 11.0804 0.1988 0.0000 0.0961
329 74 6.3317 12.6612 12.6584 0.1508 0.0000 0.0897
330 74 7.9129 14.2438 14.2420 0.1892 0.0000 0.0851
331 74 6.3305 12.6596 15.8253 0.2105 0.0000 0.0922
332 74 7.9141 14.2401 17.4089 0.1828 0.0000 0.0768
333 74 6.3288 12.6602 18.9905 0.1711 0.0000 0.0867
334 74 7.9123 14.2439 20.5715 0.1707 0.0000 0.0960
335 74 6.3300 12.6590 22.1551 0.1901 0.0000 0.0748
336 74 7.9129 14.2439 23.7375 0.1720 0.0000 0.0783
337 74 6.3290 15.8241 0.0011 0.1642 0.0000 0.0941
338 74 7.9123 17.4091 1.5841 0.1420 0.0000 0.0962
339 74 6.3317 15.8243 3.1648 0.2035 0.0000 0.0799
340 74 7.9118 17.4065 4.7467 0.2116 0.0000 0.0841
341 74 6.3285 15.8240 6.3274 0.1424 0.0000 0.0830
342 74 7.9122 17.4074 7.9122 0.1828 0.0000 0.0813
343 74 6.3274 15.8238 9.4955 0.1610 0.0000 0.0755
344 74 7.9105 17.4098 11.0774 0.1483 0.0000 0.0919
345 74 6.3299 15.8243 12.6629 0.1497 0.0000 0.0967
346 74 7.9121 17.4092 14.2455 0.1542 0.0000 0.0731
347 74 6.3309 15.8238 15.8237 0.1915 0.0000 0.0768
348 74 7.9127 17.4077 17.4081 0.1945 0.0000 0.0972
349 74 6.3287 15.8262 18.9884 0.1767 0.0000 0.0816
350 74 7.9115 17.4080 20.5726 0.1559 0.0000 0.0961
351 74 6.3305 15.8258 22.1546 0.2078 0.0000 0.0831
352 74 7.9118 17.4072 23.7399 0.1556 0.0000 0.0750
353 74 6.3291 18.9927 0.0001 0.1729 0.0000 0.0877
354 74 7.9112 20.5733 1.5821 0.1603 0.0000 0.0893
355 74 6.3291 18.9908 3.1644 0.1918 0.0000 0.0789
356 74 7.9115 20.5725 4.7489 0.1778 0.0000 0.0800
357 74 6.3308 18.9906 6.3325 0.2104 0.0000 0.0893
358 74 7.9126 20.5733 7.9127 0.1829 0.0000 0.0729
359 74 6.3300 18.9905 9.4935 0.1979 0.0000 0.0737
360 74 7.9112 20.5715 11.0794 0.2072 0.0000 0.0791
361 74 6.3305 18.9906 12.6635 0.1924 0.0000 0.0766
362 74 7.9128 20.5728 14.2425 0.2007 0.0000 0.0734
363 74 6.3312 18.9918 15.8243 0.1478 0.0000 0.0949
364 74 7.9134 20.5720 17.4084 0.1590 0.0000 0.0951
365 74 6.3298 18.9876 18.9891 0.1880 0.0000 0.0757
366 74 7.9130 20.5734 20.5731 0.1793 0.0000 0.0797
367 74 6.3292 18.9894 22.1538 0.1674 0.0000 0.0984
368 74 7.9137 20.5732 23.7388 0.2008 0.0000 0.0967
369 74 6.3297 22.1540 0.0006 0.1572 0.0000 0.0933
370 74 7.9119 23.7376 1.5841 0.1762 0.0000 0.0927
371 74 6.3305 22.1540 3.1645 0.1748 0.0000 0.0930
372 74 7.9123 23.7388 4.7485 0.1973 0.0000 0.0842
373 74 6.3313 22.1551 6.3311 0.1956 0.0000 0.0804
374 74 7.9124 23.7378 7.9124 0.1866 0.0000 0.0788
375 74 6.3298 22.1550 9.4949 0.1539 0.0000 0.0857
376 74 7.9129 23.7379 11.0762 0.1786 0.0000 0.0800
377 74 6.3284 22.1544 12.6601 0.1443 0.0000 0.0936
378 74 7.9109 23.7355 14.2425 0.1869 0.0000 0.0873
379 74 6.3303 22.1524 15.8262 0.1503 0.0000 0.0891
380 74 7.9118 23.7375 17.4091 0.2015 0.0000 0.0972
381 74 6.3300 22.1558 18.9887 0.1791 0.0000 0.0914
382 74 7.9126 23.7385 20.5716 0.1479 0.0000 0.0951
383 74 6.3307 22.1551 22.1552 0.1477 0.0000 0.0951
384 74 7.9135 23.7379 23.7339 0.1723 0.0000 0.0810
385 74 9.4946 0.0000 -0.0012 0.1832 0.0000 0.0738
386 74 11.0792 1.5839 1.5815 0.1681 0.0000 0.0795
387 74 9.4942 0.0004 3.1658 0.1654 0.0000 0.0863
388 74 11.0761 1.5836 4.7478 0.1909 0.0000 0.0956
389 74 9.4953 0.0021 6.3305 0.1584 0.0000 0.0980
390 74 11.0776 1.5820 7.9152 0.1535 0.0000 0.0832
391 74 9.4970 0.0003 9.4946 0.1452 0.0000 0.0762
392 74 11.0777 1.5821 11.0751 0.1976 0.0000 0.0855
393 74 9.4948 0.0001 12.6595 0.1738 0.0000 0.0756
394 74 11.0766 1.5834 14.2414 0.1429 0.0000 0.0753
395 74 9.4941 0.0010 15.8252 0.2010 0.0000 0.0985
396 74 11.0793 1.5827 17.4053 0.1991 0.0000 0.0749
397 74 9.4950 0.0008 18.9914 0.1784 0.0000 0.0735
398 74 11.0778 1.5829 20.5726 0.2067 0.0000 0.0748
399 74 9.4940 0.0015 22.1535 0.1607 0.0000 0.0919
400 74 11.0776 1.5814 23.7384 0.1972 0.0000 0.0965
401 74 9.4951 3.1638 -0.0003 0.1910 0.0000 0.0741
402 74 11.0777 4.7473 1.5856 0.2023 0.0000 0.0835
403 74 9.4949 3.1644 3.1657 0.1446 0.0000 0.0871
404 74 11.0759 4.7473 4.7472 0.1738 0.0000 0.0759
405 74 9.4965 3.1657 6.3316 0.1704 0.0000 0.0959
406 74 11.0784 4.7483 7.9134 0.1650 0.0000 0.0786
407 74 9.4963 3.1665 9.4963 0.1700 0.0000 0.0834
408 74 11.0770 4.7473 11.0753 0.1568 0.0000 0.0735
409 74 9.4943 3.1652 12.6600 0.1538 0.0000 0.0820
410 74 11.0774 4.7484 14.2426 0.1898 0.0000 0.0756
411 74 9.4950 3.1665 15.8253 0.2081 0.0000 0.0780
412 74 11.0791 4.7466 17.4065 0.1741 0.0000 0.0943
413 74 9.4943 3.1652 18.9901 0.1582 0.0000 0.0907
414 74 11.0769 4.7451 20.5720 0.1767 0.0000 0.0932
415 74 9.4944 3.1647 22.1573 0.1808 0.0000 0.0897
416 74 11.0782 4.7476 23.7363 0.1653 0.0000 0.0842
417 74 9.4969 6.3311 -0.0019 0.1604 0.0000 0.0755
418 74 11.0772 7.9105 1.5819 0.1569 0.0000 0.0924
419 74 9.4965 6.3313 3.1654 0.1894 0.0000 0.0911
420 74 11.0762 7.9126 4.7472 0.1775 0.0000 0.0792
421 74 9.4955 6.3288 6.3309 0.2046 0.0000 0.0756
422 74 11.0758 7.9108 7.9124 0.1489 0.0000 0.0845
423 74 9.4961 6.3298 9.4950 0.1881 0.0000 0.0729
424 74 11.0793 7.9119 11.0770 0.1961 0.0000 0.0849
425 74 9.4947 6.3292 12.6589 0.1815 0.0000 0.0928
426 74 11.0775 7.9113 14.2422 0.1421 0.0000 0.0891
427 74 9.4939 6.3305 15.8253 0.1885 0.0000 0.0748
428 74 11.0773 7.9132 17.4070 0.1982 0.0000 0.0812
429 74 9.4934 6.3307 18.9896 0.1954 0.0000 0.0880
430 74 11.0781 7.9113 20.5732 0.1937 0.0000 0.0862
431 74 9.4955 6.3309 22.1535 0.2052 0.0000 0.0969
432 74 11.0765 7.9113 23.7389 0.1508 0.0000 0.0788
433 74 9.4947 9.4948 -0.0004 0.1530 0.0000 0.0881
434 74 11.0781 11.0758 1.5820 0.1931 0.0000 0.0797
435 74 9.4945 9.4952 3.1641 0.1499 0.0000 0.0961
436 74 11.0747 11.0765 4.7456 0.1663 0.0000 0.0898
437 74 9.4923 9.4940 6.3296 0.2022 0.0000 0.0937
438 74 11.0782 11.0768 7.9124 0.1617 0.0000 0.0967
439 74 9.4951 9.4955 9.4947 0.1931 0.0000 0.0833
440 74 11.0772 11.0779 11.0776 0.2006 0.0000 0.0854
441 74 9.4947 9.4940 12.6593 0.1498 0.0000 0.0847
442 74 11.0776 11.0764 14.2409 0.1513 0.0000 0.0836
443 74 9.4948 9.4930 15.8258 0.1957 0.0000 0.0779
444 74 11.0789 11.0797 17.4065 0.1843 0.0000 0.0884
445 74 9.4958 9.4962 18.9912 0.1790 0.0000 0.0781
446 74 11.0781 11.0784 20.5734 0.1519 0.0000 0.0803
447 74 9.4955 9.4962 22.1556 0.1946 0.0000 0.0901
448 74 11.0779 11.0775 23.7375 0.1435 0.0000 0.0806
449 74 9.4921 12.6571 0.0030 0.1973 0.0000 0.0839
450 74 11.0784 14.2418 1.5816 0.1999 0.0000 0.0875
451 74 9.4943 12.6607 3.1662 0.1931 0.0000 0.0795
452 74 11.0790 14.2420 4.7464 0.1700 0.0000 0.0825
453 74 9.4956 12.6608 6.3315 0.1666 0.0000 0.0791
454 74 11.0764 14.2422 7.9114 0.1657 0.0000 0.0852
455 74 9.4959 12.6625 9.4941 0.1581 0.0000 0.0940
456 74 11.0775 14.2424 11.0774 0.2034 0.0000 0.0795
457 74 9.4966 12.6593 12.6610 0.1684 0.0000 0.0886
458 74 11.0760 14.2424 14.2425 0.1510 0.0000 0.0812
459 74 9.4933 12.6607 15.8252 0.1684 0.0000 0.0787
460 74 11.0761 14.2422 17.4062 0.1436 0.0000 0.0748
461 74 9.4950 12.6590 18.9884 0.1539 0.0000 0.0907
462 74 11.0777 14.2429 20.5702 0.2036 0.0000 0.0854
463 74 9.4951 12.6584 22.1539 0.1854 0.0000 0.0797
464 74 11.0781 14.2430 23.7371 0.1682 0.0000 0.0984
465 74 9.4964 15.8245 -0.0006 0.1639 0.0000 0.0807
466 74 11.0766 17.4073 1.5814 0.1607 0.0000 0.0781
467 74 9.4949 15.8244 3.1647 0.1925 0.0000 0.0984
468 74 11.0790 17.4093 4.7482 0.1550 0.0000 0.0967
469 74 9.4950 15.8251 6.3302 0.1445 0.0000 0.0907
470 74 11.0780 17.4079 7.9121 0.1772 0.0000 0.0910
471 74 9.4945 15.8249 9.4949 0.1461 0.0000 0.0839
472 74 11.0776 17.4076 11.0788 0.1577 0.0000 0.0897
473 74 9.4956 15.8244 12.6623 0.1930 0.0000 0.0806
474 74 11.0791 17.4060 14.2439 0.1767 0.0000 0.0984
475 74 9.4959 15.8250 15.8237 0.2077 0.0000 0.0747
476 74 11.0774 17.4071 17.4075 0.2023 0.0000 0.0852
477 74 9.4929 15.8259 18.9899 0.1767 0.0000 0.0828
478 74 11.0778 17.4078 20.5727 0.1416 0.0000 0.0919
479 74 9.4945 15.8246 22.1559 0.1554 0.0000 0.0961
480 74 11.0763 17.4066 23.7375 0.1801 0.0000 0.0853
481 74 9.4939 18.9897 0.0002 0.1445 0.0000 0.0830
482 74 11.0779 20.5730 1.5822 0.1819 0.0000 0.0925
483 74 9.4945 18.9906 3.1644 0.1541 0.0000 0.0904
484 74 11.0762 20.5724 4.7463 0.1966 0.0000 0.0821
485 74 9.4944 18.9885 6.3292 0.1627 0.0000 0.0946
486 74 11.0782 20.5724 7.9125 0.1706 0.0000 0.0970
487 74 9.4949 18.9893 9.4964 0.1825 0.0000 0.0885
488 74 11.0792 20.5722 11.0755 0.1850 0.0000 0.0881
489 74 9.4938 18.9890 12.6600 0.1670 0.0000 0.0923
490 74 11.0776 20.5711 14.2399 0.2039 0.0000 0.0738
491 74 9.4942 18.9908 15.8265 0.1423 0.0000 0.0736
492 74 11.0773 20.5717 17.4057 0.1743 0.0000 0.0936
493 74 9.4946 18.9903 18.9890 0.1558 0.0000 0.0885
494 74 11.0792 20.5727 20.5742 0.1527 0.0000 0.0954
495 74 9.4962 18.9896 22.1545 0.1882 0.0000 0.0868
496 74 11.0791 20.5745 23.7378 0.1800 0.0000 0.0735
497 74 9.4947 22.1546 -0.0008 0.2116 0.0000 0.0985
498 74 11.0793 23.7367 1.5824 0.1883 0.0000 0.0882
499 74 9.4952 22.1557 3.1648 0.1914 0.0000 0.0949
500 74 11.0769 23.7389 4.7485 0.1973 0.0000 0.0817
501 74 9.4945 22.1536 6.3281 0.1457 0.0000 0.0756
502 74 11.0783 23.7379 7.9126 0.1803 0.0000 0.0946
503 74 9.4945 22.1543 9.4954 0.1526 0.0000 0.0804
504 74 11.0780 23.7371 11.0780 0.1527 0.0000 0.0929
505 74 9.4922 22.1551 12.6587 0.1490 0.0000 0.0957
506 74 11.0791 23.7380 14.2416 0.1414 0.0000 0.0938
507 74 9.4946 22.1572 15.8256 0.1538 0.0000 0.0828
508 74 11.0763 23.7368 17.4075 0.1692 0.0000 0.0953
509 74 9.4952 22.1550 18.9902 0.1972 0.0000 0.0873
510 74 11.0780 23.7371 20.5725 0.2083 0.0000 0.0836
511 74 9.4972 22.1545 22.1556 0.1473 0.0000 0.0869
512 74 11.0762 23.7389 23.7372 0.1995 0.0000 0.0935
513 74 12.6613 0.0031 0.0001 0.1907 0.0000 0.0820
514 74 14.2427 1.5831 1.5823 0.1975 0.0000 0.0731
515 74 12.6591 0.0001 3.1652 0.1788 0.0000 0.0924
516 74 14.2422 1.5830 4.7464 0.1600 0.0000 0.0906
517 74 12.6602 0.0009 6.3314 0.1654 0.0000 0.0796
518 74 14.2421 1.5823 7.9116 0.1800 0.0000 0.0735
519 74 12.6578 -0.0026 9.4940 0.1704 0.0000 0.0758
520 74 14.2429 1.5821 11.0786 0.1457 0.0000 0.0765
521 74 12.6611 -0.0025 12.6604 0.2041 0.0000 0.0769
522 74 14.2429 1.5817 14.2414 0.1708 0.0000 0.0909
523 74 12.6596 -0.0004 15.8220 0.1694 0.0000 0.0845
524 74 14.2424 1.5819 17.4076 0.1945 0.0000 0.0871
525 74 12.6598 0.0001 18.9892 0.1616 0.0000 0.0895
526 74 14.2432 1.5822 20.5727 0.1914 0.0000 0.0932
527 74 12.6589 -0.0029 22.1549 0.1599 0.0000 0.0789
528 74 14.2436 1.5827 23.7380 0.1413 0.0000 0.0977
529 74 12.6608 3.1675 0.0006 0.1738 0.0000 0.0962
530 74 14.2421 4.7453 1.5814 0.1858 0.0000 0.0770
531 74 12.6604 3.1632 3.1657 0.1849 0.0000 0.0852
532 74 14.2433 4.7488 4.7483 0.1560 0.0000 0.0954
533 74 12.6617 3.1637 6.3295 0.1667 0.0000 0.0767
534 74 14.2397 4.7480 7.9130 0.1807 0.0000 0.0805
535 74 12.6614 3.1634 9.4934 0.2067 0.0000 0.0819
536 74 14.2445 4.7481 11.0785 0.1610 0.0000 0.0856
537 74 12.6587 3.1655 12.6610 0.1535 0.0000 0.0904
538 74 14.2424 4.7484 14.2419 0.2097 0.0000 0.0756
539 74 12.6572 3.1642 15.8240 0.1824 0.0000 0.0922
540 74 14.2422 4.7476 17.4070 0.1629 0.0000 0.0949
541 74 12.6596 3.1646 18.9901 0.1573 0.0000 0.0852
542 74 14.2408 4.7470 20.5733 0.1784 0.0000 0.0862
543 74 12.6595 3.1643 22.1568 0.1798 0.0000 0.0760
544 74 14.2431 4.7460 23.7378 0.1992 0.0000 0.0800
545 74 12.6613 6.3295 -0.0011 0.1551 0.0000 0.0819
546 74 14.2422 7.9113 1.5829 0.1686 0.0000 0.0813
547 74 12.6602 6.3297 3.1656 0.1907 0.0000 0.0912
548 74 14.2414 7.9136 4.7473 0.1763 0.0000 0.0835
549 74 12.6586 6.3297 6.3304 0.1705 0.0000 0.0929
550 74 14.2440 7.9134 7.9108 0.1455 0.0000 0.0740
551 74 12.6590 6.3303 9.4960 0.2110 0.0000 0.0876
552 74 14.2427 7.9134 11.0777 0.1939 0.0000 0.0948
553 74 12.6613 6.3307 12.6599 0.1514 0.0000 0.0834
554 74 14.2429 7.9114 14.2431 0.1657 0.0000 0.0751
555 74 12.6613 6.3300 15.8246 0.2072 0.0000 0.0732
556 74 14.2424 7.9126 17.4058 0.1820 0.0000 0.0783
557 74 12.6620 6.3282 18.9891 0.1498 0.0000 0.0790
558 74 14.2432 7.9134 20.5745 0.1837 0.0000 0.0776
559 74 12.6608 6.3294 22.1525 0.1833 0.0000 0.0879
560 74 14.2419 7.9119 23.7338 0.1841 0.0000 0.0929
561 74 12.6606 9.4963 -0.0014 0.2042 0.0000 0.0928
562 74 14.2425 11.0776 1.5830 0.1981 0.0000 0.0821
563 74 12.6591 9.4940 3.1661 0.1735 0.0000 0.0815
564 74 14.2419 11.0764 4.7490 0.1616 0.0000 0.0836
565 74 12.6587 9.4928 6.3285 0.1931 0.0000 0.0734
566 74 14.2431 11.0784 7.9126 0.2076 0.0000 0.0823
567 74 12.6594 9.4936 9.4944 0.1416 0.0000 0.0926
568 74 14.2425 11.0769 11.0769 0.1881 0.0000 0.0805
569 74 12.6599 9.4951 12.6592 0.1709 0.0000 0.0891
570 74 14.2429 11.0764 14.2438 0.1583 0.0000 0.0871
571 74 12.6609 9.4957 15.8247 0.1896 0.0000 0.0969
572 74 14.2439 11.0760 17.4069 0.1926 0.0000 0.0940
573 74 12.6597 9.4943 18.9895 0.1743 0.0000 0.0839
574 74 14.2435 11.0781 20.5730 0.2055 0.0000 0.0756
575 74 12.6595 9.4955 22.1552 0.1764 0.0000 0.0782
576 74 14.2421 11.0781 23.7397 0.1641 0.0000 0.0921
577 74 12.6599 12.6595 0.0014 0.1529 0.0000 0.0731
578 74 14.2432 14.2419 1.5831 0.1831 0.0000 0.0822
579 74 12.6599 12.6608 3.1660 0.1919 0.0000 0.0825
580 74 14.2424 14.2427 4.7472 0.1749 0.0000 0.0905
581 74 12.6607 12.6603 6.3301 0.1587 0.0000 0.0887
582 74 14.2422 14.2404 7.9107 0.1600 0.0000 0.0899
583 74 12.6591 12.6613 9.4957 0.1491 0.0000 0.0983
584 74 14.2433 14.2449 11.0771 0.1513 0.0000 0.0781
585 74 12.6591 12.6598 12.6589 0.1943 0.0000 0.0860
586 74 14.2433 14.2425 14.2413 0.1655 0.0000 0.0814
587 74 12.6586 12.6588 15.8235 0.2002 0.0000 0.0766
588 74 14.2423 14.2428 17.4077 0.1818 0.0000 0.0896
589 74 12.6603 12.6594 18.9912 0.1774 0.0000 0.0939
590 74 14.2405 14.2422 20.5702 0.1582 0.0000 0.0794
591 74 12.6606 12.6616 22.1538 0.2002 0.0000 0.0912
592 74 14.2415 14.2418 23.7381 0.2098 0.0000 0.0741
593 74 12.6605 15.8235 0.0007 0.1824 0.0000 0.0904