ITEM: TIMESTEP
0
ITEM: NUMBER OF ATOMS
864
ITEM: BOX BOUNDS pp pp pp
0.0 21.690000
0.0 21.690000
0.0 21.690000
ITEM: ATOMS id type x y z vx vy vz c_pe c_ke
1 1 0.000000 0.000000 0.000000 0.037144 0.011043 -0.005668 -3.493324 0.046286
2 1 1.807500 1.807500 0.000000 0.021190 -0.035276 -0.015510 -3.530228 0.042331
3 1 1.807500 0.000000 1.807500 0.020799 -0.021915 0.002764 -3.429732 0.045696
4 1 0.000000 1.807500 1.807500 0.018915 -0.000417 0.016679 -3.449801 0.039843
5 2 0.000000 0.000000 3.615000 0.022196 -0.015870 0.010701 -6.274789 0.031256
6 1 1.807500 1.807500 3.615000 0.023860 -0.014672 -0.017496 -3.540060 0.058096
7 2 1.807500 0.000000 5.422500 0.005606 0.016970 -0.013271 -6.316125 0.027011
8 1 0.000000 1.807500 5.422500 -0.012409 0.018157 -0.000834 -3.467435 0.036752
9 1 0.000000 0.000000 7.230000 -0.004301 0.027740 -0.014093 -3.615988 0.051789
10 1 1.807500 1.807500 7.230000 0.008999 -0.047045 0.000968 -3.560189 0.056225
11 1 1.807500 0.000000 9.037500 -0.015839 -0.012619 -0.019781 -3.592703 0.031772
12 1 0.000000 1.807500 9.037500 -0.031200 -0.022406 -0.034908 -3.614864 0.023180
13 1 0.000000 0.000000 10.845000 -0.011324 -0.014855 -0.026649 -3.516086 0.038296
14 1 1.807500 1.807500 10.845000 -0.009386 -0.010081 0.034610 -3.528009 0.043530
15 1 1.807500 0.000000 12.652500 -0.056189 -0.014204 -0.047171 -3.561310 0.042510
16 1 0.000000 1.807500 12.652500 -0.014651 0.011268 -0.022222 -3.511210 0.023240
17 1 0.000000 0.000000 14.460000 -0.005686 0.009122 0.011644 -3.546363 0.058174
18 1 1.807500 1.807500 14.460000 -0.009004 -0.009799 -0.059958 -3.451553 0.035087
19 2 1.807500 0.000000 16.267500 -0.021326 0.023954 0.022405 -6.314584 0.024427
20 1 0.000000 1.807500 16.267500 0.009103 -0.013502 -0.025438 -3.487831 0.017451
21 2 0.000000 0.000000 18.075000 0.010285 0.008330 0.037194 -6.303741 0.018192
22 1 1.807500 1.807500 18.075000 -0.018167 0.001405 0.007726 -3.490959 0.019180
23 1 1.807500 0.000000 19.882500 -0.007169 0.021073 0.033547 -3.446949 0.034874
24 1 0.000000 1.807500 19.882500 0.023849 0.037192 0.026031 -3.503816 0.047054
25 2 0.000000 3.615000 0.000000 -0.014324 -0.026245 0.017823 -6.337353 0.038495
26 1 1.807500 5.422500 0.000000 -0.012574 -0.008537 0.005057 -3.591093 0.039462
27 1 1.807500 3.615000 1.807500 0.005346 -0.001681 -0.016157 -3.500669 0.057503
28 1 0.000000 5.422500 1.807500 -0.013064 0.026822 0.019322 -3.672663 0.031165
29 2 0.000000 3.615000 3.615000 -0.011531 0.014177 0.003418 -6.296280 0.045139
30 1 1.807500 5.422500 3.615000 -0.019532 -0.016221 -0.026571 -3.548514 0.037585
31 2 1.807500 3.615000 5.422500 0.003105 -0.013189 0.016439 -6.274144 0.054242
32 2 0.000000 5.422500 5.422500 0.012899 0.003364 0.012194 -6.289512 0.032258
33 1 0.000000 3.615000 7.230000 0.028016 0.037340 0.042955 -3.538239 0.042019
34 2 1.807500 5.422500 7.230000 0.007550 -0.000046 0.011231 -6.326059 0.036839
35 1 1.807500 3.615000 9.037500 0.038219 0.003579 0.001456 -3.495899 0.040280
36 1 0.000000 5.422500 9.037500 0.006336 -0.001381 -0.026517 -3.541549 0.027408
37 2 0.000000 3.615000 10.845000 0.003811 -0.021425 0.016624 -6.282538 0.041581
38 1 1.807500 5.422500 10.845000 -0.002176 0.009045 -0.042695 -3.594841 0.037289
39 2 1.807500 3.615000 12.652500 0.006261 -0.001440 -0.018218 -6.313328 0.034239
40 1 0.000000 5.422500 12.652500 -0.023218 0.007159 -0.004562 -3.480176 0.045432
41 2 0.000000 3.615000 14.460000 0.013323 0.005833 -0.015327 -6.366781 0.024065
42 1 1.807500 5.422500 14.460000 0.062555 -0.023454 -0.004559 -3.558019 0.035966
43 1 1.807500 3.615000 16.267500 -0.012690 -0.040595 -0.021689 -3.609533 0.037509
44 1 0.000000 5.422500 16.267500 -0.014866 -0.014931 0.004691 -3.569139 0.048097
45 1 0.000000 3.615000 18.075000 -0.008391 0.004892 -0.028796 -3.507156 0.034725
46 1 1.807500 5.422500 18.075000 0.008881 0.007170 -0.003769 -3.529128 0.034924
47 1 1.807500 3.615000 19.882500 0.029248 0.020300 0.010484 -3.599007 0.027783
48 1 0.000000 5.422500 19.882500 -0.014424 -0.005323 0.009734 -3.584827 0.050547
49 1 0.000000 7.230000 0.000000 0.000078 -0.043733 -0.010328 -3.669259 0.031259
50 1 1.807500 9.037500 0.000000 -0.011931 -0.013263 -0.007067 -3.559705 0.032839
51 1 1.807500 7.230000 1.807500 0.032646 0.026397 -0.024810 -3.477305 0.022563
52 1 0.000000 9.037500 1.807500 -0.017700 0.033139 -0.048661 -3.511261 0.026242
53 1 0.000000 7.230000 3.615000 -0.003129 -0.003915 0.036877 -3.580530 0.038086
54 2 1.807500 9.037500 3.615000 0.011371 -0.004566 -0.014908 -6.322960 0.039712
55 1 1.807500 7.230000 5.422500 0.019209 -0.020490 -0.009759 -3.523853 0.037105
56 1 0.000000 9.037500 5.422500 -0.004026 -0.000369 -0.015119 -3.579985 0.043184
57 1 0.000000 7.230000 7.230000 -0.023794 0.025321 0.004722 -3.603827 0.041607
58 2 1.807500 9.037500 7.230000 0.003034 0.013821 0.021015 -6.338321 0.031699
59 1 1.807500 7.230000 9.037500 -0.013167 -0.021317 -0.016219 -3.525775 0.038929
60 1 0.000000 9.037500 9.037500 -0.010676 -0.016041 0.007559 -3.565080 0.028375
61 2 0.000000 7.230000 10.845000 -0.002751 -0.004796 -0.019405 -6.278641 0.047237
62 1 1.807500 9.037500 10.845000 0.000889 0.002847 0.011457 -3.541546 0.047689
63 1 1.807500 7.230000 12.652500 0.035981 0.001749 0.009566 -3.496327 0.035396
64 1 0.000000 9.037500 12.652500 -0.024516 0.019685 -0.034086 -3.450558 0.047481
65 2 0.000000 7.230000 14.460000 0.003404 0.000927 0.031760 -6.367311 0.027175
66 2 1.807500 9.037500 14.460000 -0.010847 -0.004748 -0.018252 -6.312307 0.040136
67 1 1.807500 7.230000 16.267500 -0.017683 0.034831 -0.030247 -3.603836 0.042538
68 1 0.000000 9.037500 16.267500 -0.004508 0.009076 -0.013449 -3.591667 0.032321
69 1 0.000000 7.230000 18.075000 -0.014853 0.011407 -0.010428 -3.501928 0.044657
70 1 1.807500 9.037500 18.075000 0.022610 0.019571 0.017042 -3.501507 0.033610
71 1 1.807500 7.230000 19.882500 -0.005690 -0.039765 0.006339 -3.573688 0.042792
72 2 0.000000 9.037500 19.882500 0.009566 -0.024520 -0.018385 -6.337467 0.033600
73 2 0.000000 10.845000 0.000000 0.003029 -0.020953 0.000856 -6.404424 0.017225
74 1 1.807500 12.652500 0.000000 0.015572 -0.028362 -0.012166 -3.610868 0.024688
75 1 1.807500 10.845000 1.807500 -0.008666 -0.008911 0.021349 -3.517524 0.036165
76 1 0.000000 12.652500 1.807500 0.016463 0.024260 0.008937 -3.560316 0.048963
77 2 0.000000 10.845000 3.615000 0.032071 0.011978 0.032110 -6.273670 0.047265
78 1 1.807500 12.652500 3.615000 -0.023687 -0.024195 -0.001075 -3.623473 0.032847
79 1 1.807500 10.845000 5.422500 0.018845 -0.014452 0.011585 -3.607563 0.033840
80 1 0.000000 12.652500 5.422500 0.022237 0.004531 0.006307 -3.454764 0.051745
81 1 0.000000 10.845000 7.230000 -0.019052 0.028635 -0.013368 -3.540879 0.038929
82 1 1.807500 12.652500 7.230000 0.023315 -0.024537 0.009818 -3.513799 0.046892
83 1 1.807500 10.845000 9.037500 -0.004571 0.021802 -0.015460 -3.482647 0.042299
84 2 0.000000 12.652500 9.037500 -0.025390 0.007397 0.003252 -6.337783 0.031414
85 1 0.000000 10.845000 10.845000 -0.005219 -0.031335 0.036736 -3.596414 0.032164
86 1 1.807500 12.652500 10.845000 0.024876 0.012711 0.015649 -3.464165 0.035655
87 2 1.807500 10.845000 12.652500 -0.018978 0.015310 0.014440 -6.336344 0.026121
88 1 0.000000 12.652500 12.652500 0.026924 0.012512 -0.029843 -3.501002 0.024367
89 1 0.000000 10.845000 14.460000 -0.010487 -0.024407 -0.013859 -3.581666 0.032643
90 1 1.807500 12.652500 14.460000 0.015737 0.006401 0.013661 -3.485383 0.035049
91 1 1.807500 10.845000 16.267500 0.001736 0.011693 0.037084 -3.495046 0.052592
92 1 0.000000 12.652500 16.267500 0.022140 0.022972 -0.038777 -3.495957 0.040906
93 2 0.000000 10.845000 18.075000 0.000983 -0.009562 -0.007712 -6.299191 0.047176
94 1 1.807500 12.652500 18.075000 -0.032544 0.004739 -0.012183 -3.587540 0.042703
95 1 1.807500 10.845000 19.882500 -0.007142 -0.014319 -0.016712 -3.525935 0.038676
96 1 0.000000 12.652500 19.882500 -0.023719 -0.018273 -0.003965 -3.519743 0.028279
97 2 0.000000 14.460000 0.000000 0.008852 -0.014943 0.049466 -6.367050 0.030875
98 1 1.807500 16.267500 0.000000 0.004215 -0.019607 0.017983 -3.449929 0.034900
99 2 1.807500 14.460000 1.807500 0.003133 -0.009389 -0.000001 -6.248413 0.047719
100 2 0.000000 16.267500 1.807500 -0.016398 0.028034 0.021073 -6.295682 0.032184
101 1 0.000000 14.460000 3.615000 0.001428 -0.017284 0.010160 -3.555824 0.016427
102 2 1.807500 16.267500 3.615000 0.016796 0.003472 0.019558 -6.326809 0.040661
103 1 1.807500 14.460000 5.422500 0.024234 0.008426 0.006258 -3.379280 0.037086
104 1 0.000000 16.267500 5.422500 0.003676 0.037677 -0.017491 -3.592050 0.024456
105 1 0.000000 14.460000 7.230000 0.011595 0.013594 0.016111 -3.607678 0.048835
106 1 1.807500 16.267500 7.230000 0.026014 -0.002114 0.000708 -3.506220 0.042448
107 1 1.807500 14.460000 9.037500 0.013949 -0.023598 -0.003794 -3.600624 0.045089
108 1 0.000000 16.267500 9.037500 0.011520 -0.002147 0.006449 -3.617826 0.047356
109 1 0.000000 14.460000 10.845000 -0.010153 0.002804 0.024235 -3.577825 0.050749
110 2 1.807500 16.267500 10.845000 0.002250 0.000511 0.010084 -6.382351 0.044718
111 2 1.807500 14.460000 12.652500 0.001115 0.018792 -0.003932 -6.338166 0.042473
112 1 0.000000 16.267500 12.652500 -0.001290 -0.025508 -0.004214 -3.476618 0.037845
113 1 0.000000 14.460000 14.460000 -0.018913 0.015556 -0.040271 -3.646013 0.038735
114 1 1.807500 16.267500 14.460000 0.003931 0.004789 -0.019398 -3.547525 0.024789
115 2 1.807500 14.460000 16.267500 0.003982 -0.029293 -0.002706 -6.306921 0.021210
116 2 0.000000 16.267500 16.267500 -0.009475 0.014293 0.028090 -6.395198 0.042176
117 1 0.000000 14.460000 18.075000 -0.026855 -0.029230 0.034679 -3.506591 0.030735
118 1 1.807500 16.267500 18.075000 0.004759 0.013948 0.003939 -3.427636 0.044834
119 1 1.807500 14.460000 19.882500 -0.065031 -0.006305 -0.016004 -3.550207 0.038911
120 1 0.000000 16.267500 19.882500 -0.014148 -0.023573 0.029624 -3.510133 0.032069
121 2 0.000000 18.075000 0.000000 0.012325 0.012244 0.022982 -6.372766 0.046575
122 1 1.807500 19.882500 0.000000 -0.013206 0.025097 -0.004182 -3.653589 0.039130
123 2 1.807500 18.075000 1.807500 -0.032355 -0.003938 -0.001055 -6.340065 0.023907
124 1 0.000000 19.882500 1.807500 -0.024242 -0.018351 -0.005391 -3.475575 0.045867
125 1 0.000000 18.075000 3.615000 -0.010260 0.027679 -0.029725 -3.505749 0.037024
126 1 1.807500 19.882500 3.615000 0.005135 0.013872 -0.014766 -3.499942 0.038683
127 1 1.807500 18.075000 5.422500 0.052403 -0.006611 0.027576 -3.507645 0.027035
128 2 0.000000 19.882500 5.422500 0.024674 -0.019230 -0.040476 -6.277334 0.049466
129 2 0.000000 18.075000 7.230000 0.000943 -0.004733 0.028719 -6.284407 0.032218
130 2 1.807500 19.882500 7.230000 0.013266 -0.022546 -0.010137 -6.372557 0.016776
131 1 1.807500 18.075000 9.037500 -0.025580 0.026559 -0.023853 -3.567502 0.027167
132 1 0.000000 19.882500 9.037500 0.018808 0.000026 0.010663 -3.545284 0.027066
133 2 0.000000 18.075000 10.845000 -0.017662 0.015183 -0.001041 -6.281280 0.007151
134 2 1.807500 19.882500 10.845000 0.020131 -0.008958 0.039404 -6.345538 0.039059
135 1 1.807500 18.075000 12.652500 0.014349 -0.019029 0.018963 -3.572261 0.051668
136 1 0.000000 19.882500 12.652500 0.017235 0.010769 -0.015735 -3.550529 0.041776
137 1 0.000000 18.075000 14.460000 -0.044180 -0.011988 0.020382 -3.603409 0.051566
138 2 1.807500 19.882500 14.460000 -0.011394 0.005862 -0.020812 -6.295781 0.043404
139 2 1.807500 18.075000 16.267500 0.020608 0.024555 0.022732 -6.309554 0.026515
140 1 0.000000 19.882500 16.267500 0.028763 -0.028336 -0.009532 -3.503145 0.043212
141 1 0.000000 18.075000 18.075000 0.034614 -0.000088 -0.036722 -3.553763 0.040517
142 1 1.807500 19.882500 18.075000 -0.007618 0.030690 -0.005380 -3.611792 0.043444
143 1 1.807500 18.075000 19.882500 -0.024937 0.036935 0.005869 -3.610164 0.049570
144 2 0.000000 19.882500 19.882500 0.042965 -0.036343 0.016377 -6.295799 0.040533
145 1 3.615000 0.000000 0.000000 0.007460 0.010688 -0.015057 -3.469451 0.025281
146 1 5.422500 1.807500 0.000000 0.042555 0.033193 -0.025772 -3.540270 0.052975
147 1 5.422500 0.000000 1.807500 -0.010668 -0.003529 -0.008743 -3.481626 0.032700
148 2 3.615000 1.807500 1.807500 -0.000178 0.009797 -0.003765 -6.363322 0.025361
149 1 3.615000 0.000000 3.615000 -0.032988 -0.025635 -0.037384 -3.576344 0.041779
150 1 5.422500 1.807500 3.615000 0.001175 -0.017961 -0.022119 -3.589669 0.024898
151 2 5.422500 0.000000 5.422500 -0.022412 0.012955 -0.025472 -6.319134 0.032596
152 1 3.615000 1.807500 5.422500 0.052754 -0.039043 0.004200 -3.556688 0.031065
153 1 3.615000 0.000000 7.230000 0.006849 0.003381 -0.023225 -3.518686 0.042668
154 1 5.422500 1.807500 7.230000 0.028452 -0.013253 0.031950 -3.549841 0.019016
155 1 5.422500 0.000000 9.037500 0.011366 -0.001773 -0.019172 -3.493338 0.034060
156 1 3.615000 1.807500 9.037500 0.022095 -0.001797 0.016303 -3.506026 0.043508
157 1 3.615000 0.000000 10.845000 -0.022424 0.019983 0.000473 -3.439887 0.043563
158 1 5.422500 1.807500 10.845000 0.016320 -0.016619 -0.008825 -3.535164 0.027072
159 1 5.422500 0.000000 12.652500 -0.025428 -0.002359 -0.001692 -3.529896 0.049948
160 1 3.615000 1.807500 12.652500 -0.008698 0.014794 -0.003143 -3.549701 0.041347
161 1 3.615000 0.000000 14.460000 -0.044927 0.001442 -0.013868 -3.586492 0.019907
162 1 5.422500 1.807500 14.460000 -0.009623 -0.040793 0.018906 -3.551965 0.021956
163 1 5.422500 0.000000 16.267500 -0.014634 0.016404 -0.012926 -3.554061 0.035085
164 2 3.615000 1.807500 16.267500 -0.002326 -0.030824 -0.000824 -6.347905 0.068314
165 2 3.615000 0.000000 18.075000 -0.003863 -0.008263 0.017926 -6.327802 0.041310
166 1 5.422500 1.807500 18.075000 -0.018993 0.033792 -0.013638 -3.521232 0.050100
167 1 5.422500 0.000000 19.882500 -0.006616 -0.000003 0.012744 -3.505866 0.027876
168 1 3.615000 1.807500 19.882500 0.003943 -0.020541 -0.016195 -3.572420 0.050936
169 1 3.615000 3.615000 0.000000 0.034690 0.056611 -0.001229 -3.582070 0.029082
170 1 5.422500 5.422500 0.000000 0.034927 -0.033426 -0.006887 -3.568303 0.056276
171 2 5.422500 3.615000 1.807500 -0.018377 0.019978 0.023817 -6.328339 0.043431
172 1 3.615000 5.422500 1.807500 -0.033433 -0.001917 -0.004672 -3.668979 0.042930
173 1 3.615000 3.615000 3.615000 0.007717 -0.036793 -0.030686 -3.577464 0.033485
174 2 5.422500 5.422500 3.615000 -0.005556 -0.017375 -0.018277 -6.304674 0.034024
175 2 5.422500 3.615000 5.422500 -0.001937 -0.004165 0.008291 -6.327714 0.047392
176 1 3.615000 5.422500 5.422500 0.002238 0.019317 0.027096 -3.613024 0.047996
177 1 3.615000 3.615000 7.230000 0.038737 -0.021131 -0.000692 -3.557860 0.043185
178 1 5.422500 5.422500 7.230000 0.011298 -0.014542 0.028519 -3.582834 0.037393
179 1 5.422500 3.615000 9.037500 0.022240 0.042444 -0.011139 -3.500885 0.040977
180 1 3.615000 5.422500 9.037500 -0.034383 -0.020754 -0.026177 -3.565166 0.034609
181 2 3.615000 3.615000 10.845000 0.000507 0.023170 0.007661 -6.187347 0.036342
182 1 5.422500 5.422500 10.845000 0.017149 0.009004 0.032734 -3.558936 0.047229
183 2 5.422500 3.615000 12.652500 0.029542 -0.013072 -0.001358 -6.294785 0.034429
184 1 3.615000 5.422500 12.652500 -0.019017 0.039821 -0.004990 -3.453295 0.033692
185 1 3.615000 3.615000 14.460000 -0.004500 0.017320 -0.004476 -3.584943 0.031577
186 1 5.422500 5.422500 14.460000 0.005925 -0.014473 0.001914 -3.652864 0.033195
187 2 5.422500 3.615000 16.267500 -0.003270 -0.009297 -0.018018 -6.364175 0.039482
188 1 3.615000 5.422500 16.267500 0.032311 -0.030385 -0.006003 -3.491148 0.042121
189 1 3.615000 3.615000 18.075000 -0.002037 -0.009793 0.000288 -3.545053 0.016912
190 1 5.422500 5.422500 18.075000 -0.015552 -0.042360 0.028052 -3.498868 0.030894
191 1 5.422500 3.615000 19.882500 0.017488 0.053204 -0.013538 -3.475036 0.042402
192 1 3.615000 5.422500 19.882500 -0.005143 -0.024029 -0.012079 -3.559746 0.015619
193 1 3.615000 7.230000 0.000000 0.011526 -0.006991 0.009978 -3.560961 0.068759
194 2 5.422500 9.037500 0.000000 -0.030054 -0.016921 0.012789 -6.202077 0.028852
195 1 5.422500 7.230000 1.807500 0.039745 -0.019925 0.028102 -3.536230 0.061076
196 2 3.615000 9.037500 1.807500 0.032315 -0.011746 0.053238 -6.376208 0.035640
197 1 3.615000 7.230000 3.615000 0.039282 -0.015965 -0.013935 -3.533468 0.043301
198 1 5.422500 9.037500 3.615000 0.008413 -0.016202 0.004278 -3.508129 0.053816
199 2 5.422500 7.230000 5.422500 0.005951 -0.022722 0.000515 -6.351030 0.051967
200 2 3.615000 9.037500 5.422500 -0.030383 0.010150 -0.019320 -6.256397 0.046488
201 2 3.615000 7.230000 7.230000 0.003977 0.009157 -0.006109 -6.286211 0.038280
202 2 5.422500 9.037500 7.230000 0.013260 0.001062 -0.044995 -6.345683 0.053951
203 2 5.422500 7.230000 9.037500 0.026341 0.001896 -0.002286 -6.336762 0.045082
204 1 3.615000 9.037500 9.037500 0.012581 -0.021274 0.014376 -3.478355 0.029228
205 1 3.615000 7.230000 10.845000 -0.004060 0.010072 0.015704 -3.561027 0.033490
206 1 5.422500 9.037500 10.845000 -0.010079 0.008370 0.009324 -3.540971 0.025134
207 1 5.422500 7.230000 12.652500 -0.023683 0.013837 -0.026532 -3.528682 0.035169
208 1 3.615000 9.037500 12.652500 -0.013085 0.000580 0.036424 -3.525559 0.035820
209 1 3.615000 7.230000 14.460000 -0.032013 0.011130 0.024698 -3.509631 0.050436
210 2 5.422500 9.037500 14.460000 0.008643 -0.023634 -0.000815 -6.293757 0.045987
211 1 5.422500 7.230000 16.267500 -0.010713 -0.001377 0.007950 -3.476435 0.048829
212 2 3.615000 9.037500 16.267500 0.011721 0.007185 -0.018593 -6.375048 0.037858
213 1 3.615000 7.230000 18.075000 0.022631 0.008590 0.012191 -3.615078 0.024160
214 1 5.422500 9.037500 18.075000 0.024333 -0.000753 -0.028544 -3.495892 0.041357
215 2 5.422500 7.230000 19.882500 0.053523 0.022668 0.006287 -6.327555 0.041099
216 2 3.615000 9.037500 19.882500 -0.001862 -0.026092 0.016820 -6.306257 0.011229
217 1 3.615000 10.845000 0.000000 -0.013809 -0.018007 0.021313 -3.542203 0.053651
218 2 5.422500 12.652500 0.000000 -0.028861 -0.019509 0.019351 -6.352761 0.028190
219 1 5.422500 10.845000 1.807500 -0.011443 -0.016509 0.011718 -3.484092 0.022907
220 1 3.615000 12.652500 1.807500 -0.006318 0.000309 0.001786 -3.498337 0.039975
221 2 3.615000 10.845000 3.615000 -0.010514 -0.020164 -0.033090 -6.338556 0.038921
222 1 5.422500 12.652500 3.615000 0.020027 -0.008208 0.050489 -3.543824 0.033943
223 1 5.422500 10.845000 5.422500 0.008270 -0.021088 0.004539 -3.643205 0.045537
224 2 3.615000 12.652500 5.422500 0.001209 0.003819 0.002807 -6.383688 0.029790
225 1 3.615000 10.845000 7.230000 0.034035 0.010747 -0.012977 -3.518946 0.042854
226 1 5.422500 12.652500 7.230000 0.042467 0.024126 0.008934 -3.562459 0.056613
227 1 5.422500 10.845000 9.037500 -0.002206 -0.018914 -0.026513 -3.583120 0.035136
228 2 3.615000 12.652500 9.037500 0.013880 0.016560 0.020874 -6.312351 0.047091
229 1 3.615000 10.845000 10.845000 0.049090 0.019779 0.034827 -3.615532 0.031359
230 2 5.422500 12.652500 10.845000 -0.013621 -0.048547 0.001336 -6.250378 0.033423
231 1 5.422500 10.845000 12.652500 0.004247 -0.018557 -0.010684 -3.525735 0.026819
232 1 3.615000 12.652500 12.652500 0.025509 -0.041690 0.007001 -3.564574 0.053668
233 1 3.615000 10.845000 14.460000 0.016553 -0.045284 -0.052633 -3.590068 0.033754
234 1 5.422500 12.652500 14.460000 -0.004107 0.000657 0.014636 -3.608300 0.020771
235 1 5.422500 10.845000 16.267500 0.005485 -0.007843 -0.002246 -3.572091 0.037044
236 1 3.615000 12.652500 16.267500 0.032299 -0.035270 -0.026628 -3.507920 0.054451
237 2 3.615000 10.845000 18.075000 -0.003729 -0.022899 -0.036289 -6.306973 0.026283
238 1 5.422500 12.652500 18.075000 0.047271 0.050878 0.004917 -3.515727 0.037597
239 1 5.422500 10.845000 19.882500 0.024809 -0.000067 0.001377 -3.471980 0.045038
240 1 3.615000 12.652500 19.882500 0.046302 -0.035565 -0.012072 -3.585195 0.047194
241 1 3.615000 14.460000 0.000000 -0.010725 0.013087 -0.025400 -3.544717 0.061746
242 1 5.422500 16.267500 0.000000 0.035598 -0.040816 0.007922 -3.498682 0.033842
243 1 5.422500 14.460000 1.807500 -0.023952 0.014384 0.002191 -3.512373 0.037196
244 2 3.615000 16.267500 1.807500 0.042275 -0.016572 -0.008995 -6.294256 0.046094
245 1 3.615000 14.460000 3.615000 -0.029956 0.028188 -0.031682 -3.539680 0.035706
246 2 5.422500 16.267500 3.615000 -0.012832 0.020551 -0.042563 -6.356539 0.029749
247 1 5.422500 14.460000 5.422500 0.019010 0.033687 0.016849 -3.470236 0.016531
248 1 3.615000 16.267500 5.422500 0.003555 -0.030050 -0.008147 -3.527766 0.039723
249 1 3.615000 14.460000 7.230000 0.029892 -0.042991 -0.018159 -3.614031 0.022389
250 1 5.422500 16.267500 7.230000 0.021853 0.003964 0.033822 -3.480740 0.039458
251 1 5.422500 14.460000 9.037500 -0.021068 0.021549 -0.015027 -3.599971 0.027272
252 2 3.615000 16.267500 9.037500 0.002210 0.022950 0.000954 -6.258779 0.039690
253 1 3.615000 14.460000 10.845000 -0.009266 0.059125 0.039567 -3.530155 0.030455
254 1 5.422500 16.267500 10.845000 -0.034961 0.008721 -0.005552 -3.516650 0.042007
255 2 5.422500 14.460000 12.652500 0.007912 0.020714 0.005698 -6.356172 0.031071
256 2 3.615000 16.267500 12.652500 0.010575 -0.019437 0.013027 -6.284290 0.038338
257 1 3.615000 14.460000 14.460000 -0.016979 -0.038596 -0.024421 -3.621296 0.039043
258 1 5.422500 16.267500 14.460000 -0.009610 -0.020004 0.018960 -3.533534 0.039252
259 1 5.422500 14.460000 16.267500 0.012127 0.022520 -0.034826 -3.504666 0.020687
260 2 3.615000 16.267500 16.267500 -0.014406 0.018355 0.012535 -6.286763 0.040597
261 2 3.615000 14.460000 18.075000 0.025624 -0.027942 -0.005534 -6.317633 0.059129
262 2 5.422500 16.267500 18.075000 0.018616 0.018831 -0.013807 -6.207517 0.043495
263 1 5.422500 14.460000 19.882500 -0.021857 0.050960 -0.031004 -3.583435 0.036436
264 1 3.615000 16.267500 19.882500 -0.021302 0.011455 0.006013 -3.534325 0.057715
265 2 3.615000 18.075000 0.000000 -0.029631 0.024779 -0.014955 -6.246892 0.057829
266 2 5.422500 19.882500 0.000000 0.041738 -0.003455 -0.021095 -6.303604 0.038243
267 1 5.422500 18.075000 1.807500 -0.038303 0.015982 -0.020048 -3.467900 0.048428
268 2 3.615000 19.882500 1.807500 -0.005102 0.000656 -0.004399 -6.342870 0.069760
269 1 3.615000 18.075000 3.615000 -0.020342 0.001202 0.021543 -3.559217 0.032491
270 1 5.422500 19.882500 3.615000 -0.028878 0.025900 0.015470 -3.516503 0.023689
271 2 5.422500 18.075000 5.422500 0.009132 0.005174 -0.006131 -6.388837 0.038210
272 1 3.615000 19.882500 5.422500 -0.018922 0.001739 0.001376 -3.556908 0.047597
273 1 3.615000 18.075000 7.230000 -0.001435 0.011496 0.009091 -3.489591 0.029136
274 2 5.422500 19.882500 7.230000 -0.006262 0.016720 0.002784 -6.263710 0.046229
275 1 5.422500 18.075000 9.037500 -0.009662 0.019132 -0.005595 -3.492170 0.057314
276 1 3.615000 19.882500 9.037500 0.023718 0.049746 -0.033713 -3.567419 0.036113
277 1 3.615000 18.075000 10.845000 -0.008697 0.008092 -0.007998 -3.484695 0.048624
278 1 5.422500 19.882500 10.845000 0.008984 -0.021993 0.011893 -3.506285 0.042315
279 1 5.422500 18.075000 12.652500 0.000652 0.030426 -0.011915 -3.558335 0.045447
280 1 3.615000 19.882500 12.652500 0.011533 0.018525 -0.006171 -3.605735 0.026401
281 2 3.615000 18.075000 14.460000 -0.007846 0.014370 0.014367 -6.410796 0.044115
282 1 5.422500 19.882500 14.460000 -0.001895 -0.022643 0.047601 -3.526802 0.047051
283 1 5.422500 18.075000 16.267500 0.055787 -0.012626 -0.008621 -3.465549 0.025700
284 1 3.615000 19.882500 16.267500 0.001607 0.001004 0.021080 -3.519730 0.029645
285 1 3.615000 18.075000 18.075000 0.021125 0.018363 -0.022836 -3.574390 0.033518
286 2 5.422500 19.882500 18.075000 -0.020843 0.019307 -0.005873 -6.333892 0.028399
287 2 5.422500 18.075000 19.882500 -0.007155 0.026929 0.013570 -6.400870 0.028879
288 1 3.615000 19.882500 19.882500 0.013810 -0.010823 -0.012021 -3.583025 0.025466
289 1 7.230000 0.000000 0.000000 0.002070 -0.008262 0.024778 -3.543335 0.029125
290 1 9.037500 1.807500 0.000000 0.015075 0.029249 -0.015986 -3.625129 0.033987
291 1 9.037500 0.000000 1.807500 -0.029331 0.035669 -0.030153 -3.556385 0.053512
292 2 7.230000 1.807500 1.807500 0.015799 -0.009315 -0.014200 -6.329075 0.036375
293 1 7.230000 0.000000 3.615000 0.032514 -0.003361 -0.029332 -3.490711 0.049142
294 1 9.037500 1.807500 3.615000 -0.004928 0.016777 0.001113 -3.600340 0.037966
295 2 9.037500 0.000000 5.422500 -0.020758 -0.011500 -0.017026 -6.303358 0.040641
296 1 7.230000 1.807500 5.422500 -0.028674 -0.019986 -0.000058 -3.516782 0.039499
297 1 7.230000 0.000000 7.230000 -0.047949 0.027962 0.038509 -3.460810 0.044218
298 1 9.037500 1.807500 7.230000 0.014601 -0.014214 0.004097 -3.596531 0.039994
299 1 9.037500 0.000000 9.037500 -0.031064 0.012715 -0.007704 -3.501647 0.040602
300 2 7.230000 1.807500 9.037500 -0.008334 0.015293 -0.021279 -6.333243 0.033401
301 2 7.230000 0.000000 10.845000 0.013492 -0.001369 0.004897 -6.293726 0.015315
302 1 9.037500 1.807500 10.845000 -0.020127 0.002519 0.021999 -3.511371 0.051884
303 2 9.037500 0.000000 12.652500 -0.004019 0.001826 -0.009064 -6.341784 0.030472
304 1 7.230000 1.807500 12.652500 -0.011804 -0.004138 -0.014157 -3.538671 0.020590
305 1 7.230000 0.000000 14.460000 0.009298 0.003856 0.009696 -3.563175 0.033694
306 1 9.037500 1.807500 14.460000 0.021345 -0.003357 0.043163 -3.610306 0.036303
307 1 9.037500 0.000000 16.267500 -0.024495 -0.017094 -0.017165 -3.564037 0.046605
308 2 7.230000 1.807500 16.267500 -0.020744 0.011062 -0.026130 -6.340276 0.051975
309 2 7.230000 0.000000 18.075000 0.008379 0.004938 0.011427 -6.291201 0.045057
310 2 9.037500 1.807500 18.075000 0.025455 -0.018832 -0.001283 -6.288137 0.046273
311 2 9.037500 0.000000 19.882500 0.010120 0.023693 -0.009085 -6.387486 0.051500
312 1 7.230000 1.807500 19.882500 -0.000017 -0.011922 0.000777 -3.561614 0.048839
313 1 7.230000 3.615000 0.000000 0.019341 0.006773 0.011752 -3.538370 0.049042
314 1 9.037500 5.422500 0.000000 -0.051350 -0.025382 -0.000868 -3.560674 0.029271
315 2 9.037500 3.615000 1.807500 0.011243 -0.017743 0.003942 -6.313786 0.039353
316 2 7.230000 5.422500 1.807500 -0.015037 -0.003503 0.022250 -6.292824 0.048405
317 1 7.230000 3.615000 3.615000 -0.001740 -0.036987 -0.010135 -3.547534 0.051792
318 1 9.037500 5.422500 3.615000 0.024682 0.009231 -0.018610 -3.533578 0.036159
319 1 9.037500 3.615000 5.422500 -0.005291 -0.026802 0.010080 -3.541492 0.046820
320 2 7.230000 5.422500 5.422500 -0.026506 -0.020437 0.066123 -6.364003 0.041652
321 2 7.230000 3.615000 7.230000 0.007938 -0.017811 0.031329 -6.323281 0.040271
322 2 9.037500 5.422500 7.230000 0.032976 -0.014345 -0.008843 -6.337276 0.025050
323 2 9.037500 3.615000 9.037500 0.005002 0.008579 0.003324 -6.287208 0.047433
324 2 7.230000 5.422500 9.037500 0.006142 -0.004378 0.022132 -6.354833 0.052740
325 1 7.230000 3.615000 10.845000 -0.004193 0.016618 0.039687 -3.653240 0.036854
326 2 9.037500 5.422500 10.845000 -0.007325 0.030963 -0.007378 -6.183549 0.023497
327 1 9.037500 3.615000 12.652500 0.007594 -0.008394 0.010975 -3.568257 0.034266
328 2 7.230000 5.422500 12.652500 -0.033056 0.001962 -0.027164 -6.385483 0.039645
329 2 7.230000 3.615000 14.460000 -0.002201 0.018626 -0.024538 -6.298949 0.042002
330 2 9.037500 5.422500 14.460000 -0.005483 -0.014574 -0.001434 -6.275801 0.035039
331 2 9.037500 3.615000 16.267500 0.015365 -0.004965 0.031278 -6.318660 0.037021
332 1 7.230000 5.422500 16.267500 -0.035000 -0.031009 0.008285 -3.551372 0.041589
333 2 7.230000 3.615000 18.075000 -0.012416 -0.002728 -0.011310 -6.305240 0.036595
334 1 9.037500 5.422500 18.075000 0.040515 -0.014950 0.024309 -3.592725 0.034123
335 2 9.037500 3.615000 19.882500 -0.015261 0.022843 0.007925 -6.313141 0.041121
336 2 7.230000 5.422500 19.882500 -0.019664 0.025441 0.025198 -6.321715 0.038909
337 1 7.230000 7.230000 0.000000 0.014104 -0.003808 -0.004349 -3.564640 0.035318
338 2 9.037500 9.037500 0.000000 -0.008633 0.013236 -0.005954 -6.341418 0.032508
339 1 9.037500 7.230000 1.807500 -0.032581 0.033899 0.011051 -3.496675 0.033478
340 1 7.230000 9.037500 1.807500 0.031662 0.003155 0.031563 -3.540669 0.038330
341 2 7.230000 7.230000 3.615000 -0.009574 0.001405 0.004080 -6.245365 0.054174
342 1 9.037500 9.037500 3.615000 0.001954 0.026487 -0.059049 -3.563515 0.041274
343 1 9.037500 7.230000 5.422500 0.019275 0.009193 -0.001218 -3.563075 0.030779
344 1 7.230000 9.037500 5.422500 0.041325 0.024384 0.028415 -3.539470 0.033432
345 1 7.230000 7.230000 7.230000 0.012052 -0.000535 -0.002783 -3.541243 0.032447
346 2 9.037500 9.037500 7.230000 -0.015803 -0.004396 -0.025124 -6.290088 0.047162
347 2 9.037500 7.230000 9.037500 -0.013955 -0.033140 0.007137 -6.308078 0.038982
348 1 7.230000 9.037500 9.037500 -0.028994 -0.041668 0.037188 -3.550820 0.043820
349 1 7.230000 7.230000 10.845000 -0.001537 0.008985 -0.027774 -3.562285 0.025223
350 1 9.037500 9.037500 10.845000 -0.023621 -0.015405 -0.039252 -3.563060 0.031668
351 2 9.037500 7.230000 12.652500 -0.021511 -0.002409 -0.000206 -6.361849 0.058896
352 1 7.230000 9.037500 12.652500 0.015605 0.024371 -0.007135 -3.495320 0.046432
353 2 7.230000 7.230000 14.460000 -0.018470 -0.012372 0.052866 -6.340561 0.043645
354 1 9.037500 9.037500 14.460000 -0.004663 0.018064 -0.021610 -3.590265 0.050120
355 2 9.037500 7.230000 16.267500 0.003600 -0.044930 0.000425 -6.329098 0.045883
356 1 7.230000 9.037500 16.267500 0.006976 0.007435 0.001900 -3.525477 0.027250
357 2 7.230000 7.230000 18.075000 -0.014778 -0.015456 -0.024321 -6.280587 0.049552
358 1 9.037500 9.037500 18.075000 0.013341 -0.013063 -0.011671 -3.561994 0.049905
359 1 9.037500 7.230000 19.882500 0.011442 0.037783 -0.021067 -3.551282 0.026170
360 1 7.230000 9.037500 19.882500 -0.030794 -0.003373 -0.007294 -3.565641 0.023429
361 2 7.230000 10.845000 0.000000 0.003568 -0.005148 0.016591 -6.292475 0.025659
362 1 9.037500 12.652500 0.000000 0.008598 -0.013012 0.033298 -3.541479 0.033741
363 1 9.037500 10.845000 1.807500 -0.008833 -0.032611 0.027691 -3.434032 0.021479
364 1 7.230000 12.652500 1.807500 -0.005471 -0.002399 -0.012912 -3.479123 0.051251
365 1 7.230000 10.845000 3.615000 -0.005331 0.045004 0.000712 -3.552095 0.041575
366 1 9.037500 12.652500 3.615000 -0.016210 0.031573 0.013398 -3.557747 0.036921
367 1 9.037500 10.845000 5.422500 -0.019724 0.005704 -0.028108 -3.539842 0.033604