ITEM: TIMESTEP
0
ITEM: NUMBER OF ATOMS
864
ITEM: BOX BOUNDS pp pp pp
0.0 10.0775771483
0.0 10.0775771483
0.0 10.0775771483
ITEM: ATOMS id type xs ys zs
1 1 0.00000000 0.00000000 0.00000000
2 1 0.08333333 0.08333333 0.00000000
3 1 0.08333333 0.00000000 0.08333333
4 1 0.00000000 0.08333333 0.08333333
5 1 0.00000000 0.00000000 0.16666667
6 1 0.08333333 0.08333333 0.16666667
7 1 0.08333333 0.00000000 0.25000000
8 1 0.00000000 0.08333333 0.25000000
9 1 0.00000000 0.00000000 0.33333333
10 1 0.08333333 0.08333333 0.33333333
11 1 0.08333333 0.00000000 0.41666667
12 1 0.00000000 0.08333333 0.41666667
13 1 0.00000000 0.00000000 0.50000000
14 1 0.08333333 0.08333333 0.50000000
15 1 0.08333333 0.00000000 0.58333333
16 1 0.00000000 0.08333333 0.58333333
17 1 0.00000000 0.00000000 0.66666667
18 1 0.08333333 0.08333333 0.66666667
19 1 0.08333333 0.00000000 0.75000000
20 1 0.00000000 0.08333333 0.75000000
21 1 0.00000000 0.00000000 0.83333333
22 1 0.08333333 0.08333333 0.83333333
23 1 0.08333333 0.00000000 0.91666667
24 1 0.00000000 0.08333333 0.91666667
25 1 0.00000000 0.16666667 0.00000000
26 1 0.08333333 0.25000000 0.00000000
27 1 0.08333333 0.16666667 0.08333333
28 1 0.00000000 0.25000000 0.08333333
29 1 0.00000000 0.16666667 0.16666667
30 1 0.08333333 0.25000000 0.16666667
31 1 0.08333333 0.16666667 0.25000000
32 1 0.00000000 0.25000000 0.25000000
33 1 0.00000000 0.16666667 0.33333333
34 1 0.08333333 0.25000000 0.33333333
35 1 0.08333333 0.16666667 0.41666667
36 1 0.00000000 0.25000000 0.41666667
37 1 0.00000000 0.16666667 0.50000000
38 1 0.08333333 0.25000000 0.50000000
39 1 0.08333333 0.16666667 0.58333333
40 1 0.00000000 0.25000000 0.58333333
41 1 0.00000000 0.16666667 0.66666667
42 1 0.08333333 0.25000000 0.66666667
43 1 0.08333333 0.16666667 0.75000000
44 1 0.00000000 0.25000000 0.75000000
45 1 0.00000000 0.16666667 0.83333333
46 1 0.08333333 0.25000000 0.83333333
47 1 0.08333333 0.16666667 0.91666667
48 1 0.00000000 0.25000000 0.91666667
49 1 0.00000000 0.33333333 0.00000000
50 1 0.08333333 0.41666667 0.00000000
51 1 0.08333333 0.33333333 0.08333333
52 1 0.00000000 0.41666667 0.08333333
53 1 0.00000000 0.33333333 0.16666667
54 1 0.08333333 0.41666667 0.16666667
55 1 0.08333333 0.33333333 0.25000000
56 1 0.00000000 0.41666667 0.25000000
57 1 0.00000000 0.33333333 0.33333333
58 1 0.08333333 0.41666667 0.33333333
59 1 0.08333333 0.33333333 0.41666667
60 1 0.00000000 0.41666667 0.41666667
61 1 0.00000000 0.33333333 0.50000000
62 1 0.08333333 0.41666667 0.50000000
63 1 0.08333333 0.33333333 0.58333333
64 1 0.00000000 0.41666667 0.58333333
65 1 0.00000000 0.33333333 0.66666667
66 1 0.08333333 0.41666667 0.66666667
67 1 0.08333333 0.33333333 0.75000000
68 1 0.00000000 0.41666667 0.75000000
69 1 0.00000000 0.33333333 0.83333333
70 1 0.08333333 0.41666667 0.83333333
71 1 0.08333333 0.33333333 0.91666667
72 1 0.00000000 0.41666667 0.91666667
73 1 0.00000000 0.50000000 0.00000000
74 1 0.08333333 0.58333333 0.00000000
75 1 0.08333333 0.50000000 0.08333333
76 1 0.00000000 0.58333333 0.08333333
77 1 0.00000000 0.50000000 0.16666667
78 1 0.08333333 0.58333333 0.16666667
79 1 0.08333333 0.50000000 0.25000000
80 1 0.00000000 0.58333333 0.25000000
81 1 0.00000000 0.50000000 0.33333333
82 1 0.08333333 0.58333333 0.33333333
83 1 0.08333333 0.50000000 0.41666667
84 1 0.00000000 0.58333333 0.41666667
85 1 0.00000000 0.50000000 0.50000000
86 1 0.08333333 0.58333333 0.50000000
87 1 0.08333333 0.50000000 0.58333333
88 1 0.00000000 0.58333333 0.58333333
89 1 0.00000000 0.50000000 0.66666667
90 1 0.08333333 0.58333333 0.66666667
91 1 0.08333333 0.50000000 0.75000000
92 1 0.00000000 0.58333333 0.75000000
93 1 0.00000000 0.50000000 0.83333333
94 1 0.08333333 0.58333333 0.83333333
95 1 0.08333333 0.50000000 0.91666667
96 1 0.00000000 0.58333333 0.91666667
97 1 0.00000000 0.66666667 0.00000000
98 1 0.08333333 0.75000000 0.00000000
99 1 0.08333333 0.66666667 0.08333333
100 1 0.00000000 0.75000000 0.08333333
101 1 0.00000000 0.66666667 0.16666667
102 1 0.08333333 0.75000000 0.16666667
103 1 0.08333333 0.66666667 0.25000000
104 1 0.00000000 0.75000000 0.25000000
105 1 0.00000000 0.66666667 0.33333333
106 1 0.08333333 0.75000000 0.33333333
107 1 0.08333333 0.66666667 0.41666667
108 1 0.00000000 0.75000000 0.41666667
109 1 0.00000000 0.66666667 0.50000000
110 1 0.08333333 0.75000000 0.50000000
111 1 0.08333333 0.66666667 0.58333333
112 1 0.00000000 0.75000000 0.58333333
113 1 0.00000000 0.66666667 0.66666667
114 1 0.08333333 0.75000000 0.66666667
115 1 0.08333333 0.66666667 0.75000000
116 1 0.00000000 0.75000000 0.75000000
117 1 0.00000000 0.66666667 0.83333333
118 1 0.08333333 0.75000000 0.83333333
119 1 0.08333333 0.66666667 0.91666667
120 1 0.00000000 0.75000000 0.91666667
121 1 0.00000000 0.83333333 0.00000000
122 1 0.08333333 0.91666667 0.00000000
123 1 0.08333333 0.83333333 0.08333333
124 1 0.00000000 0.91666667 0.08333333
125 1 0.00000000 0.83333333 0.16666667
126 1 0.08333333 0.91666667 0.16666667
127 1 0.08333333 0.83333333 0.25000000
128 1 0.00000000 0.91666667 0.25000000
129 1 0.00000000 0.83333333 0.33333333
130 1 0.08333333 0.91666667 0.33333333
131 1 0.08333333 0.83333333 0.41666667
132 1 0.00000000 0.91666667 0.41666667
133 1 0.00000000 0.83333333 0.50000000
134 1 0.08333333 0.91666667 0.50000000
135 1 0.08333333 0.83333333 0.58333333
136 1 0.00000000 0.91666667 0.58333333
137 1 0.00000000 0.83333333 0.66666667
138 1 0.08333333 0.91666667 0.66666667
139 1 0.08333333 0.83333333 0.75000000
140 1 0.00000000 0.91666667 0.75000000
141 1 0.00000000 0.83333333 0.83333333
142 1 0.08333333 0.91666667 0.83333333
143 1 0.08333333 0.83333333 0.91666667
144 1 0.00000000 0.91666667 0.91666667
145 1 0.16666667 0.00000000 0.00000000
146 1 0.25000000 0.08333333 0.00000000
147 1 0.25000000 0.00000000 0.08333333
148 1 0.16666667 0.08333333 0.08333333
149 1 0.16666667 0.00000000 0.16666667
150 1 0.25000000 0.08333333 0.16666667
151 1 0.25000000 0.00000000 0.25000000
152 1 0.16666667 0.08333333 0.25000000
153 1 0.16666667 0.00000000 0.33333333
154 1 0.25000000 0.08333333 0.33333333
155 1 0.25000000 0.00000000 0.41666667
156 1 0.16666667 0.08333333 0.41666667
157 1 0.16666667 0.00000000 0.50000000
158 1 0.25000000 0.08333333 0.50000000
159 1 0.25000000 0.00000000 0.58333333
160 1 0.16666667 0.08333333 0.58333333
161 1 0.16666667 0.00000000 0.66666667
162 1 0.25000000 0.08333333 0.66666667
163 1 0.25000000 0.00000000 0.75000000
164 1 0.16666667 0.08333333 0.75000000
165 1 0.16666667 0.00000000 0.83333333
166 1 0.25000000 0.08333333 0.83333333
167 1 0.25000000 0.00000000 0.91666667
168 1 0.16666667 0.08333333 0.91666667
169 1 0.16666667 0.16666667 0.00000000
170 1 0.25000000 0.25000000 0.00000000
171 1 0.25000000 0.16666667 0.08333333
172 1 0.16666667 0.25000000 0.08333333
173 1 0.16666667 0.16666667 0.16666667
174 1 0.25000000 0.25000000 0.16666667
175 1 0.25000000 0.16666667 0.25000000
176 1 0.16666667 0.25000000 0.25000000
177 1 0.16666667 0.16666667 0.33333333
178 1 0.25000000 0.25000000 0.33333333
179 1 0.25000000 0.16666667 0.41666667
180 1 0.16666667 0.25000000 0.41666667
181 1 0.16666667 0.16666667 0.50000000
182 1 0.25000000 0.25000000 0.50000000
183 1 0.25000000 0.16666667 0.58333333
184 1 0.16666667 0.25000000 0.58333333
185 1 0.16666667 0.16666667 0.66666667
186 1 0.25000000 0.25000000 0.66666667
187 1 0.25000000 0.16666667 0.75000000
188 1 0.16666667 0.25000000 0.75000000
189 1 0.16666667 0.16666667 0.83333333
190 1 0.25000000 0.25000000 0.83333333
191 1 0.25000000 0.16666667 0.91666667
192 1 0.16666667 0.25000000 0.91666667
193 1 0.16666667 0.33333333 0.00000000
194 1 0.25000000 0.41666667 0.00000000
195 1 0.25000000 0.33333333 0.08333333
196 1 0.16666667 0.41666667 0.08333333
197 1 0.16666667 0.33333333 0.16666667
198 1 0.25000000 0.41666667 0.16666667
199 1 0.25000000 0.33333333 0.25000000
200 1 0.16666667 0.41666667 0.25000000
201 1 0.16666667 0.33333333 0.33333333
202 1 0.25000000 0.41666667 0.33333333
203 1 0.25000000 0.33333333 0.41666667
204 1 0.16666667 0.41666667 0.41666667
205 1 0.16666667 0.33333333 0.50000000
206 1 0.25000000 0.41666667 0.50000000
207 1 0.25000000 0.33333333 0.58333333
208 1 0.16666667 0.41666667 0.58333333
209 1 0.16666667 0.33333333 0.66666667
210 1 0.25000000 0.41666667 0.66666667
211 1 0.25000000 0.33333333 0.75000000
212 1 0.16666667 0.41666667 0.75000000
213 1 0.16666667 0.33333333 0.83333333
214 1 0.25000000 0.41666667 0.83333333
215 1 0.25000000 0.33333333 0.91666667
216 1 0.16666667 0.41666667 0.91666667
217 1 0.16666667 0.50000000 0.00000000
218 1 0.25000000 0.58333333 0.00000000
219 1 0.25000000 0.50000000 0.08333333
220 1 0.16666667 0.58333333 0.08333333
221 1 0.16666667 0.50000000 0.16666667
222 1 0.25000000 0.58333333 0.16666667
223 1 0.25000000 0.50000000 0.25000000
224 1 0.16666667 0.58333333 0.25000000
225 1 0.16666667 0.50000000 0.33333333
226 1 0.25000000 0.58333333 0.33333333
227 1 0.25000000 0.50000000 0.41666667
228 1 0.16666667 0.58333333 0.41666667
229 1 0.16666667 0.50000000 0.50000000
230 1 0.25000000 0.58333333 0.50000000
231 1 0.25000000 0.50000000 0.58333333
232 1 0.16666667 0.58333333 0.58333333
233 1 0.16666667 0.50000000 0.66666667
234 1 0.25000000 0.58333333 0.66666667
235 1 0.25000000 0.50000000 0.75000000
236 1 0.16666667 0.58333333 0.75000000
237 1 0.16666667 0.50000000 0.83333333
238 1 0.25000000 0.58333333 0.83333333
239 1 0.25000000 0.50000000 0.91666667
240 1 0.16666667 0.58333333 0.91666667
241 1 0.16666667 0.66666667 0.00000000
242 1 0.25000000 0.75000000 0.00000000
243 1 0.25000000 0.66666667 0.08333333
244 1 0.16666667 0.75000000 0.08333333
245 1 0.16666667 0.66666667 0.16666667
246 1 0.25000000 0.75000000 0.16666667
247 1 0.25000000 0.66666667 0.25000000
248 1 0.16666667 0.75000000 0.25000000
249 1 0.16666667 0.66666667 0.33333333
250 1 0.25000000 0.75000000 0.33333333
251 1 0.25000000 0.66666667 0.41666667
252 1 0.16666667 0.75000000 0.41666667
253 1 0.16666667 0.66666667 0.50000000
254 1 0.25000000 0.75000000 0.50000000
255 1 0.25000000 0.66666667 0.58333333
256 1 0.16666667 0.75000000 0.58333333
257 1 0.16666667 0.66666667 0.66666667
258 1 0.25000000 0.75000000 0.66666667
259 1 0.25000000 0.66666667 0.75000000
260 1 0.16666667 0.75000000 0.75000000
261 1 0.16666667 0.66666667 0.83333333
262 1 0.25000000 0.75000000 0.83333333
263 1 0.25000000 0.66666667 0.91666667
264 1 0.16666667 0.75000000 0.91666667
265 1 0.16666667 0.83333333 0.00000000
266 1 0.25000000 0.91666667 0.00000000
267 1 0.25000000 0.83333333 0.08333333
268 1 0.16666667 0.91666667 0.08333333
269 1 0.16666667 0.83333333 0.16666667
270 1 0.25000000 0.91666667 0.16666667
271 1 0.25000000 0.83333333 0.25000000
272 1 0.16666667 0.91666667 0.25000000
273 1 0.16666667 0.83333333 0.33333333
274 1 0.25000000 0.91666667 0.33333333
275 1 0.25000000 0.83333333 0.41666667
276 1 0.16666667 0.91666667 0.41666667
277 1 0.16666667 0.83333333 0.50000000
278 1 0.25000000 0.91666667 0.50000000
279 1 0.25000000 0.83333333 0.58333333
280 1 0.16666667 0.91666667 0.58333333
281 1 0.16666667 0.83333333 0.66666667
282 1 0.25000000 0.91666667 0.66666667
283 1 0.25000000 0.83333333 0.75000000
284 1 0.16666667 0.91666667 0.75000000
285 1 0.16666667 0.83333333 0.83333333
286 1 0.25000000 0.91666667 0.83333333
287 1 0.25000000 0.83333333 0.91666667
288 1 0.16666667 0.91666667 0.91666667
289 1 0.33333333 0.00000000 0.00000000
290 1 0.41666667 0.08333333 0.00000000
291 1 0.41666667 0.00000000 0.08333333
292 1 0.33333333 0.08333333 0.08333333
293 1 0.33333333 0.00000000 0.16666667
294 1 0.41666667 0.08333333 0.16666667
295 1 0.41666667 0.00000000 0.25000000
296 1 0.33333333 0.08333333 0.25000000
297 1 0.33333333 0.00000000 0.33333333
298 1 0.41666667 0.08333333 0.33333333
299 1 0.41666667 0.00000000 0.41666667
300 1 0.33333333 0.08333333 0.41666667
301 1 0.33333333 0.00000000 0.50000000
302 1 0.41666667 0.08333333 0.50000000
303 1 0.41666667 0.00000000 0.58333333
304 1 0.33333333 0.08333333 0.58333333
305 1 0.33333333 0.00000000 0.66666667
306 1 0.41666667 0.08333333 0.66666667
307 1 0.41666667 0.00000000 0.75000000
308 1 0.33333333 0.08333333 0.75000000
309 1 0.33333333 0.00000000 0.83333333
310 1 0.41666667 0.08333333 0.83333333
311 1 0.41666667 0.00000000 0.91666667
312 1 0.33333333 0.08333333 0.91666667
313 1 0.33333333 0.16666667 0.00000000
314 1 0.41666667 0.25000000 0.00000000
315 1 0.41666667 0.16666667 0.08333333
316 1 0.33333333 0.25000000 0.08333333
317 1 0.33333333 0.16666667 0.16666667
318 1 0.41666667 0.25000000 0.16666667
319 1 0.41666667 0.16666667 0.25000000
320 1 0.33333333 0.25000000 0.25000000
321 1 0.33333333 0.16666667 0.33333333
322 1 0.41666667 0.25000000 0.33333333
323 1 0.41666667 0.16666667 0.41666667
324 1 0.33333333 0.25000000 0.41666667
325 1 0.33333333 0.16666667 0.50000000
326 1 0.41666667 0.25000000 0.50000000
327 1 0.41666667 0.16666667 0.58333333
328 1 0.33333333 0.25000000 0.58333333
329 1 0.33333333 0.16666667 0.66666667
330 1 0.41666667 0.25000000 0.66666667
331 1 0.41666667 0.16666667 0.75000000
332 1 0.33333333 0.25000000 0.75000000
333 1 0.33333333 0.16666667 0.83333333
334 1 0.41666667 0.25000000 0.83333333
335 1 0.41666667 0.16666667 0.91666667
336 1 0.33333333 0.25000000 0.91666667
337 1 0.33333333 0.33333333 0.00000000
338 1 0.41666667 0.41666667 0.00000000
339 1 0.41666667 0.33333333 0.08333333
340 1 0.33333333 0.41666667 0.08333333
341 1 0.33333333 0.33333333 0.16666667
342 1 0.41666667 0.41666667 0.16666667
343 1 0.41666667 0.33333333 0.25000000
344 1 0.33333333 0.41666667 0.25000000
345 1 0.33333333 0.33333333 0.33333333
346 1 0.41666667 0.41666667 0.33333333
347 1 0.41666667 0.33333333 0.41666667
348 1 0.33333333 0.41666667 0.41666667
349 1 0.33333333 0.33333333 0.50000000
350 1 0.41666667 0.41666667 0.50000000
351 1 0.41666667 0.33333333 0.58333333
352 1 0.33333333 0.41666667 0.58333333
353 1 0.33333333 0.33333333 0.66666667
354 1 0.41666667 0.41666667 0.66666667
355 1 0.41666667 0.33333333 0.75000000
356 1 0.33333333 0.41666667 0.75000000
357 1 0.33333333 0.33333333 0.83333333
358 1 0.41666667 0.41666667 0.83333333
359 1 0.41666667 0.33333333 0.91666667
360 1 0.33333333 0.41666667 0.91666667
361 1 0.33333333 0.50000000 0.00000000
362 1 0.41666667 0.58333333 0.00000000
363 1 0.41666667 0.50000000 0.08333333
364 1 0.33333333 0.58333333 0.08333333
365 1 0.33333333 0.50000000 0.16666667
366 1 0.41666667 0.58333333 0.16666667
367 1 0.41666667 0.50000000 0.25000000
368 1 0.33333333 0.58333333 0.25000000
369 1 0.33333333 0.50000000 0.33333333
370 1 0.41666667 0.58333333 0.33333333
371 1 0.41666667 0.50000000 0.41666667
372 1 0.33333333 0.58333333 0.41666667
373 1 0.33333333 0.50000000 0.50000000
374 1 0.41666667 0.58333333 0.50000000
375 1 0.41666667 0.50000000 0.58333333
376 1 0.33333333 0.58333333 0.58333333
377 1 0.33333333 0.50000000 0.66666667
378 1 0.41666667 0.58333333 0.66666667
379 1 0.41666667 0.50000000 0.75000000
380 1 0.33333333 0.58333333 0.75000000
381 1 0.33333333 0.50000000 0.83333333
382 1 0.41666667 0.58333333 0.83333333
383 1 0.41666667 0.50000000 0.91666667
384 1 0.33333333 0.58333333 0.91666667
385 1 0.33333333 0.66666667 0.00000000
386 1 0.41666667 0.75000000 0.00000000
387 1 0.41666667 0.66666667 0.08333333
388 1 0.33333333 0.75000000 0.08333333
389 1 0.33333333 0.66666667 0.16666667
390 1 0.41666667 0.75000000 0.16666667
391 1 0.41666667 0.66666667 0.25000000
392 1 0.33333333 0.75000000 0.25000000
393 1 0.33333333 0.66666667 0.33333333
394 1 0.41666667 0.75000000 0.33333333
395 1 0.41666667 0.66666667 0.41666667
396 1 0.33333333 0.75000000 0.41666667
397 1 0.33333333 0.66666667 0.50000000
398 1 0.41666667 0.75000000 0.50000000
399 1 0.41666667 0.66666667 0.58333333
400 1 0.33333333 0.75000000 0.58333333
401 1 0.33333333 0.66666667 0.66666667
402 1 0.41666667 0.75000000 0.66666667
403 1 0.41666667 0.66666667 0.75000000
404 1 0.33333333 0.75000000 0.75000000
405 1 0.33333333 0.66666667 0.83333333
406 1 0.41666667 0.75000000 0.83333333
407 1 0.41666667 0.66666667 0.91666667
408 1 0.33333333 0.75000000 0.91666667
409 1 0.33333333 0.83333333 0.00000000
410 1 0.41666667 0.91666667 0.00000000
411 1 0.41666667 0.83333333 0.08333333
412 1 0.33333333 0.91666667 0.08333333
413 1 0.33333333 0.83333333 0.16666667
414 1 0.41666667 0.91666667 0.16666667
415 1 0.41666667 0.83333333 0.25000000
416 1 0.33333333 0.91666667 0.25000000
417 1 0.33333333 0.83333333 0.33333333
418 1 0.41666667 0.91666667 0.33333333
419 1 0.41666667 0.83333333 0.41666667
420 1 0.33333333 0.91666667 0.41666667
421 1 0.33333333 0.83333333 0.50000000
422 1 0.41666667 0.91666667 0.50000000
423 1 0.41666667 0.83333333 0.58333333
424 1 0.33333333 0.91666667 0.58333333
425 1 0.33333333 0.83333333 0.66666667
426 1 0.41666667 0.91666667 0.66666667
427 1 0.41666667 0.83333333 0.75000000
428 1 0.33333333 0.91666667 0.75000000
429 1 0.33333333 0.83333333 0.83333333
430 1 0.41666667 0.91666667 0.83333333
431 1 0.41666667 0.83333333 0.91666667
432 1 0.33333333 0.91666667 0.91666667
433 1 0.50000000 0.00000000 0.00000000
434 1 0.58333333 0.08333333 0.00000000
435 1 0.58333333 0.00000000 0.08333333
436 1 0.50000000 0.08333333 0.08333333
437 1 0.50000000 0.00000000 0.16666667
438 1 0.58333333 0.08333333 0.16666667
439 1 0.58333333 0.00000000 0.25000000
440 1 0.50000000 0.08333333 0.25000000
441 1 0.50000000 0.00000000 0.33333333
442 1 0.58333333 0.08333333 0.33333333
443 1 0.58333333 0.00000000 0.41666667
444 1 0.50000000 0.08333333 0.41666667
445 1 0.50000000 0.00000000 0.50000000
446 1 0.58333333 0.08333333 0.50000000
447 1 0.58333333 0.00000000 0.58333333
448 1 0.50000000 0.08333333 0.58333333
449 1 0.50000000 0.00000000 0.66666667
450 1 0.58333333 0.08333333 0.66666667
451 1 0.58333333 0.00000000 0.75000000
452 1 0.50000000 0.08333333 0.75000000
453 1 0.50000000 0.00000000 0.83333333
454 1 0.58333333 0.08333333 0.83333333
455 1 0.58333333 0.00000000 0.91666667
456 1 0.50000000 0.08333333 0.91666667
457 1 0.50000000 0.16666667 0.00000000
458 1 0.58333333 0.25000000 0.00000000
459 1 0.58333333 0.16666667 0.08333333
460 1 0.50000000 0.25000000 0.08333333
461 1 0.50000000 0.16666667 0.16666667
462 1 0.58333333 0.25000000 0.16666667
463 1 0.58333333 0.16666667 0.25000000
464 1 0.50000000 0.25000000 0.25000000
465 1 0.50000000 0.16666667 0.33333333
466 1 0.58333333 0.25000000 0.33333333
467 1 0.58333333 0.16666667 0.41666667
468 1 0.50000000 0.25000000 0.41666667
469 1 0.50000000 0.16666667 0.50000000
470 1 0.58333333 0.25000000 0.50000000
471 1 0.58333333 0.16666667 0.58333333
472 1 0.50000000 0.25000000 0.58333333
473 1 0.50000000 0.16666667 0.66666667
474 1 0.58333333 0.25000000 0.66666667
475 1 0.58333333 0.16666667 0.75000000
476 1 0.50000000 0.25000000 0.75000000
477 1 0.50000000 0.16666667 0.83333333
478 1 0.58333333 0.25000000 0.83333333
479 1 0.58333333 0.16666667 0.91666667
480 1 0.50000000 0.25000000 0.91666667
481 1 0.50000000 0.33333333 0.00000000
482 1 0.58333333 0.41666667 0.00000000
483 1 0.58333333 0.33333333 0.08333333
484 1 0.50000000 0.41666667 0.08333333
485 1 0.50000000 0.33333333 0.16666667
486 1 0.58333333 0.41666667 0.16666667
487 1 0.58333333 0.33333333 0.25000000
488 1 0.50000000 0.41666667 0.25000000
489 1 0.50000000 0.33333333 0.33333333
490 1 0.58333333 0.41666667 0.33333333
491 1 0.58333333 0.33333333 0.41666667
492 1 0.50000000 0.41666667 0.41666667
493 1 0.50000000 0.33333333 0.50000000
494 1 0.58333333 0.41666667 0.50000000
495 1 0.58333333 0.33333333 0.58333333
496 1 0.50000000 0.41666667 0.58333333
497 1 0.50000000 0.33333333 0.66666667
498 1 0.58333333 0.41666667 0.66666667
499 1 0.58333333 0.33333333 0.75000000
500 1 0.50000000 0.41666667 0.75000000
501 1 0.50000000 0.33333333 0.83333333
502 1 0.58333333 0.41666667 0.83333333
503 1 0.58333333 0.33333333 0.91666667
504 1 0.50000000 0.41666667 0.91666667
505 1 0.50000000 0.50000000 0.00000000
506 1 0.58333333 0.58333333 0.00000000
507 1 0.58333333 0.50000000 0.08333333
508 1 0.50000000 0.58333333 0.08333333
509 1 0.50000000 0.50000000 0.16666667
510 1 0.58333333 0.58333333 0.16666667
511 1 0.58333333 0.50000000 0.25000000
512 1 0.50000000 0.58333333 0.25000000
513 1 0.50000000 0.50000000 0.33333333
514 1 0.58333333 0.58333333 0.33333333
515 1 0.58333333 0.50000000 0.41666667
516 1 0.50000000 0.58333333 0.41666667
517 1 0.50000000 0.50000000 0.50000000
518 1 0.58333333 0.58333333 0.50000000
519 1 0.58333333 0.50000000 0.58333333
520 1 0.50000000 0.58333333 0.58333333
521 1 0.50000000 0.50000000 0.66666667
522 1 0.58333333 0.58333333 0.66666667
523 1 0.58333333 0.50000000 0.75000000
524 1 0.50000000 0.58333333 0.75000000
525 1 0.50000000 0.50000000 0.83333333
526 1 0.58333333 0.58333333 0.83333333
527 1 0.58333333 0.50000000 0.91666667
528 1 0.50000000 0.58333333 0.91666667
529 1 0.50000000 0.66666667 0.00000000
530 1 0.58333333 0.75000000 0.00000000
531 1 0.58333333 0.66666667 0.08333333
532 1 0.50000000 0.75000000 0.08333333
533 1 0.50000000 0.66666667 0.16666667
534 1 0.58333333 0.75000000 0.16666667
535 1 0.58333333 0.66666667 0.25000000
536 1 0.50000000 0.75000000 0.25000000
537 1 0.50000000 0.66666667 0.33333333
538 1 0.58333333 0.75000000 0.33333333
539 1 0.58333333 0.66666667 0.41666667
540 1 0.50000000 0.75000000 0.41666667
541 1 0.50000000 0.66666667 0.50000000
542 1 0.58333333 0.75000000 0.50000000
543 1 0.58333333 0.66666667 0.58333333
544 1 0.50000000 0.75000000 0.58333333
545 1 0.50000000 0.66666667 0.66666667
546 1 0.58333333 0.75000000 0.66666667
547 1 0.58333333 0.66666667 0.75000000
548 1 0.50000000 0.75000000 0.75000000
549 1 0.50000000 0.66666667 0.83333333
550 1 0.58333333 0.75000000 0.83333333
551 1 0.58333333 0.66666667 0.91666667
552 1 0.50000000 0.75000000 0.91666667
553 1 0.50000000 0.83333333 0.00000000
554 1 0.58333333 0.91666667 0.00000000
555 1 0.58333333 0.83333333 0.08333333
556 1 0.50000000 0.91666667 0.08333333
557 1 0.50000000 0.83333333 0.16666667
558 1 0.58333333 0.91666667 0.16666667
559 1 0.58333333 0.83333333 0.25000000
560 1 0.50000000 0.91666667 0.25000000
561 1 0.50000000 0.83333333 0.33333333
562 1 0.58333333 0.91666667 0.33333333
563 1 0.58333333 0.83333333 0.41666667
564 1 0.50000000 0.91666667 0.41666667
565 1 0.50000000 0.83333333 0.50000000
566 1 0.58333333 0.91666667 0.50000000
567 1 0.58333333 0.83333333 0.58333333
568 1 0.50000000 0.91666667 0.58333333
569 1 0.50000000 0.83333333 0.66666667
570 1 0.58333333 0.91666667 0.66666667
571 1 0.58333333 0.83333333 0.75000000
572 1 0.50000000 0.91666667 0.75000000
573 1 0.50000000 0.83333333 0.83333333
574 1 0.58333333 0.91666667 0.83333333
575 1 0.58333333 0.83333333 0.91666667
576 1 0.50000000 0.91666667 0.91666667
577 1 0.66666667 0.00000000 0.00000000
578 1 0.75000000 0.08333333 0.00000000
579 1 0.75000000 0.00000000 0.08333333
580 1 0.66666667 0.08333333 0.08333333
581 1 0.66666667 0.00000000 0.16666667
582 1 0.75000000 0.08333333 0.16666667
583 1 0.75000000 0.00000000 0.25000000
584 1 0.66666667 0.08333333 0.25000000
585 1 0.66666667 0.00000000 0.33333333
586 1 0.75000000 0.08333333 0.33333333
587 1 0.75000000 0.00000000 0.41666667
588 1 0.66666667 0.08333333 0.41666667
589 1 0.66666667 0.00000000 0.50000000
590 1 0.75000000 0.08333333 0.50000000
591 1 0.75000000 0.00000000 0.58333333
592 1 0.66666667 0.08333333 0.58333333
593 1 0.66666667 0.00000000 0.66666667
594 1 0.75000000 0.08333333 0.66666667
595 1 0.75000000 0.00000000 0.75000000
596 1 0.66666667 0.08333333 0.75000000
597 1 0.66666667 0.00000000 0.83333333
598 1 0.75000000 0.08333333 0.83333333
599 1 0.75000000 0.00000000 0.91666667
600 1 0.66666667 0.08333333 0.91666667
601 1 0.66666667 0.16666667 0.00000000
602 1 0.75000000 0.25000000 0.00000000
603 1 0.75000000 0.16666667 0.08333333
604 1 0.66666667 0.25000000 0.08333333
605 1 0.66666667 0.16666667 0.16666667
606 1 0.75000000 0.25000000 0.16666667
607 1 0.75000000 0.16666667 0.25000000
608 1 0.66666667 0.25000000 0.25000000
609 1 0.66666667 0.16666667 0.33333333
610 1 0.75000000 0.25000000 0.33333333
611 1 0.75000000 0.16666667 0.41666667
612 1 0.66666667 0.25000000 0.41666667
613 1 0.66666667 0.16666667 0.50000000
614 1 0.75000000 0.25000000 0.50000000
615 1 0.75000000 0.16666667 0.58333333
616 1 0.66666667 0.25000000 0.58333333
617 1 0.66666667 0.16666667 0.66666667
618 1 0.75000000 0.25000000 0.66666667
619 1 0.75000000 0.16666667 0.75000000
620 1 0.66666667 0.25000000 0.75000000
621 1 0.66666667 0.16666667 0.83333333
622 1 0.75000000 0.25000000 0.83333333
623 1 0.75000000 0.16666667 0.91666667
624 1 0.66666667 0.25000000 0.91666667
625 1 0.66666667 0.33333333 0.00000000
626 1 0.75000000 0.41666667 0.00000000
627 1 0.75000000 0.33333333 0.08333333
628 1 0.66666667 0.41666667 0.08333333
629 1 0.66666667 0.33333333 0.16666667
630 1 0.75000000 0.41666667 0.16666667
631 1 0.75000000 0.33333333 0.25000000
632 1 0.66666667 0.41666667 0.25000000
633 1 0.66666667 0.33333333 0.33333333
634 1 0.75000000 0.41666667 0.33333333
635 1 0.75000000 0.33333333 0.41666667
636 1 0.66666667 0.41666667 0.41666667
637 1 0.66666667 0.33333333 0.50000000
638 1 0.75000000 0.41666667 0.50000000
639 1 0.75000000 0.33333333 0.58333333
640 1 0.66666667 0.41666667 0.58333333
641 1 0.66666667 0.33333333 0.66666667
642 1 0.75000000 0.41666667 0.66666667
643 1 0.75000000 0.33333333 0.75000000
644 1 0.66666667 0.41666667 0.75000000
645 1 0.66666667 0.33333333 0.83333333
646 1 0.75000000 0.41666667 0.83333333
647 1 0.75000000 0.33333333 0.91666667
648 1 0.66666667 0.41666667 0.91666667
649 1 0.66666667 0.50000000 0.00000000
650 1 0.75000000 0.58333333 0.00000000
651 1 0.75000000 0.50000000 0.08333333
652 1 0.66666667 0.58333333 0.08333333
653 1 0.66666667 0.50000000 0.16666667
654 1 0.75000000 0.58333333 0.16666667
655 1 0.75000000 0.50000000 0.25000000
656 1 0.66666667 0.58333333 0.25000000
657 1 0.66666667 0.50000000 0.33333333
658 1 0.75000000 0.58333333 0.33333333
659 1 0.75000000 0.50000000 0.41666667
660 1 0.66666667 0.58333333 0.41666667
661 1 0.66666667 0.50000000 0.50000000
662 1 0.75000000 0.58333333 0.50000000
663 1 0.75000000 0.50000000 0.58333333
664 1 0.66666667 0.58333333 0.58333333
665 1 0.66666667 0.50000000 0.66666667
666 1 0.75000000 0.58333333 0.66666667
667 1 0.75000000 0.50000000 0.75000000
668 1 0.66666667 0.58333333 0.75000000
669 1 0.66666667 0.50000000 0.83333333
670 1 0.75000000 0.58333333 0.83333333
671 1 0.75000000 0.50000000 0.91666667
672 1 0.66666667 0.58333333 0.91666667
673 1 0.66666667 0.66666667 0.00000000
674 1 0.75000000 0.75000000 0.00000000
675 1 0.75000000 0.66666667 0.08333333
676 1 0.66666667 0.75000000 0.08333333
677 1 0.66666667 0.66666667 0.16666667
678 1 0.75000000 0.75000000 0.16666667
679 1 0.75000000 0.66666667 0.25000000
680 1 0.66666667 0.75000000 0.25000000
681 1 0.66666667 0.66666667 0.33333333
682 1 0.75000000 0.75000000 0.33333333
683 1 0.75000000 0.66666667 0.41666667
684 1 0.66666667 0.75000000 0.41666667
685 1 0.66666667 0.66666667 0.50000000
686 1 0.75000000 0.75000000 0.50000000
687 1 0.75000000 0.66666667 0.58333333
688 1 0.66666667 0.75000000 0.58333333
689 1 0.66666667 0.66666667 0.66666667
690 1 0.75000000 0.75000000 0.66666667
691 1 0.75000000 0.66666667 0.75000000
692 1 0.66666667 0.75000000 0.75000000
693 1 0.66666667 0.66666667 0.83333333
694 1 0.75000000 0.75000000 0.83333333
695 1 0.75000000 0.66666667 0.91666667
696 1 0.66666667 0.75000000 0.91666667
697 1 0.66666667 0.83333333 0.00000000
698 1 0.75000000 0.91666667 0.00000000
699 1 0.75000000 0.83333333 0.08333333
700 1 0.66666667 0.91666667 0.08333333
701 1 0.66666667 0.83333333 0.16666667
702 1 0.75000000 0.91666667 0.16666667
703 1 0.75000000 0.83333333 0.25000000
704 1 0.66666667 0.91666667 0.25000000
705 1 0.66666667 0.83333333 0.33333333
706 1 0.75000000 0.91666667 0.33333333
707 1 0.75000000 0.83333333 0.41666667
708 1 0.66666667 0.91666667 0.41666667
709 1 0.66666667 0.83333333 0.50000000
710 1 0.75000000 0.91666667 0.50000000
711 1 0.75000000 0.83333333 0.58333333
712 1 0.66666667 0.91666667 0.58333333
713 1 0.66666667 0.83333333 0.66666667
714 1 0.75000000 0.91666667 0.66666667
715 1 0.75000000 0.83333333 0.75000000
716 1 0.66666667 0.91666667 0.75000000
717 1 0.66666667 0.83333333 0.83333333
718 1 0.75000000 0.91666667 0.83333333
719 1 0.75000000 0.83333333 0.91666667
720 1 0.66666667 0.91666667 0.91666667
721 1 0.83333333 0.00000000 0.00000000
722 1 0.91666667 0.08333333 0.00000000
723 1 0.91666667 0.00000000 0.08333333
724 1 0.83333333 0.08333333 0.08333333
725 1 0.83333333 0.00000000 0.16666667
726 1 0.91666667 0.08333333 0.16666667
727 1 0.91666667 0.00000000 0.25000000
728 1 0.83333333 0.08333333 0.25000000
729 1 0.83333333 0.00000000 0.33333333
730 1 0.91666667 0.08333333 0.33333333
731 1 0.91666667 0.00000000 0.41666667
732 1 0.83333333 0.08333333 0.41666667
733 1 0.83333333 0.00000000 0.50000000
734 1 0.91666667 0.08333333 0.50000000
735 1 0.91666667 0.00000000 0.58333333
736 1 0.83333333 0.08333333 0.58333333
737 1 0.83333333 0.00000000 0.66666667
738 1 0.91666667 0.08333333 0.66666667
739 1 0.91666667 0.00000000 0.75000000
740 1 0.83333333 0.08333333 0.75000000
741 1 0.83333333 0.00000000 0.83333333
742 1 0.91666667 0.08333333 0.83333333
743 1 0.91666667 0.00000000 0.91666667
744 1 0.83333333 0.08333333 0.91666667
745 1 0.83333333 0.16666667 0.00000000
746 1 0.91666667 0.25000000 0.00000000
747 1 0.91666667 0.16666667 0.08333333
748 1 0.83333333 0.25000000 0.08333333
749 1 0.83333333 0.16666667 0.16666667
750 1 0.91666667 0.25000000 0.16666667
751 1 0.91666667 0.16666667 0.25000000
752 1 0.83333333 0.25000000 0.25000000
753 1 0.83333333 0.16666667 0.33333333
754 1 0.91666667 0.25000000 0.33333333
755 1 0.91666667 0.16666667 0.41666667
756 1 0.83333333 0.25000000 0.41666667
757 1 0.83333333 0.16666667 0.50000000
758 1 0.91666667 0.25000000 0.50000000
759 1 0.91666667 0.16666667 0.58333333
760 1 0.83333333 0.25000000 0.58333333
761 1 0.83333333 0.16666667 0.66666667
762 1 0.91666667 0.25000000 0.66666667
763 1 0.91666667 0.16666667 0.75000000
764 1 0.83333333 0.25000000 0.75000000
765 1 0.83333333 0.16666667 0.83333333
766 1 0.91666667 0.25000000 0.83333333
767 1 0.91666667 0.16666667 0.91666667
768 1 0.83333333 0.25000000 0.91666667