ITEM: TIMESTEP
0
ITEM: NUMBER OF ATOMS
2048
ITEM: BOX BOUNDS pp pp pp
0.0 28.160000
0.0 28.160000
0.0 28.160000
ITEM: ATOMS id type x y z
1 2 0.00000 0.00000 0.00000
2 2 0.00000 1.76000 1.76000
3 2 1.76000 0.00000 1.76000
4 2 1.76000 1.76000 0.00000
5 2 0.00000 0.00000 3.52000
6 2 0.00000 1.76000 5.28000
7 2 1.76000 0.00000 5.28000
8 2 1.76000 1.76000 3.52000
9 2 0.00000 0.00000 7.04000
10 2 0.00000 1.76000 8.80000
11 2 1.76000 0.00000 8.80000
12 2 1.76000 1.76000 7.04000
13 2 0.00000 0.00000 10.56000
14 2 0.00000 1.76000 12.32000
15 2 1.76000 0.00000 12.32000
16 2 1.76000 1.76000 10.56000
17 2 0.00000 0.00000 14.08000
18 2 0.00000 1.76000 15.84000
19 2 1.76000 0.00000 15.84000
20 2 1.76000 1.76000 14.08000
21 2 0.00000 0.00000 17.60000
22 2 0.00000 1.76000 19.36000
23 2 1.76000 0.00000 19.36000
24 2 1.76000 1.76000 17.60000
25 2 0.00000 0.00000 21.12000
26 2 0.00000 1.76000 22.88000
27 2 1.76000 0.00000 22.88000
28 2 1.76000 1.76000 21.12000
29 2 0.00000 0.00000 24.64000
30 2 0.00000 1.76000 26.40000
31 2 1.76000 0.00000 26.40000
32 2 1.76000 1.76000 24.64000
33 2 0.00000 3.52000 0.00000
34 2 0.00000 5.28000 1.76000
35 2 1.76000 3.52000 1.76000
36 2 1.76000 5.28000 0.00000
37 2 0.00000 3.52000 3.52000
38 2 0.00000 5.28000 5.28000
39 2 1.76000 3.52000 5.28000
40 2 1.76000 5.28000 3.52000
41 2 0.00000 3.52000 7.04000
42 2 0.00000 5.28000 8.80000
43 2 1.76000 3.52000 8.80000
44 2 1.76000 5.28000 7.04000
45 2 0.00000 3.52000 10.56000
46 2 0.00000 5.28000 12.32000
47 2 1.76000 3.52000 12.32000
48 2 1.76000 5.28000 10.56000
49 2 0.00000 3.52000 14.08000
50 2 0.00000 5.28000 15.84000
51 2 1.76000 3.52000 15.84000
52 2 1.76000 5.28000 14.08000
53 2 0.00000 3.52000 17.60000
54 2 0.00000 5.28000 19.36000
55 2 1.76000 3.52000 19.36000
56 2 1.76000 5.28000 17.60000
57 2 0.00000 3.52000 21.12000
58 2 0.00000 5.28000 22.88000
59 2 1.76000 3.52000 22.88000
60 2 1.76000 5.28000 21.12000
61 2 0.00000 3.52000 24.64000
62 2 0.00000 5.28000 26.40000
63 2 1.76000 3.52000 26.40000
64 2 1.76000 5.28000 24.64000
65 2 0.00000 7.04000 0.00000
66 2 0.00000 8.80000 1.76000
67 2 1.76000 7.04000 1.76000
68 2 1.76000 8.80000 0.00000
69 2 0.00000 7.04000 3.52000
70 2 0.00000 8.80000 5.28000
71 2 1.76000 7.04000 5.28000
72 2 1.76000 8.80000 3.52000
73 2 0.00000 7.04000 7.04000
74 2 0.00000 8.80000 8.80000
75 2 1.76000 7.04000 8.80000
76 2 1.76000 8.80000 7.04000
77 2 0.00000 7.04000 10.56000
78 2 0.00000 8.80000 12.32000
79 2 1.76000 7.04000 12.32000
80 2 1.76000 8.80000 10.56000
81 2 0.00000 7.04000 14.08000
82 2 0.00000 8.80000 15.84000
83 2 1.76000 7.04000 15.84000
84 2 1.76000 8.80000 14.08000
85 2 0.00000 7.04000 17.60000
86 2 0.00000 8.80000 19.36000
87 2 1.76000 7.04000 19.36000
88 2 1.76000 8.80000 17.60000
89 2 0.00000 7.04000 21.12000
90 2 0.00000 8.80000 22.88000
91 2 1.76000 7.04000 22.88000
92 2 1.76000 8.80000 21.12000
93 2 0.00000 7.04000 24.64000
94 2 0.00000 8.80000 26.40000
95 2 1.76000 7.04000 26.40000
96 2 1.76000 8.80000 24.64000
97 2 0.00000 10.56000 0.00000
98 2 0.00000 12.32000 1.76000
99 2 1.76000 10.56000 1.76000
100 2 1.76000 12.32000 0.00000
101 2 0.00000 10.56000 3.52000
102 2 0.00000 12.32000 5.28000
103 2 1.76000 10.56000 5.28000
104 2 1.76000 12.32000 3.52000
105 2 0.00000 10.56000 7.04000
106 2 0.00000 12.32000 8.80000
107 2 1.76000 10.56000 8.80000
108 2 1.76000 12.32000 7.04000
109 2 0.00000 10.56000 10.56000
110 2 0.00000 12.32000 12.32000
111 2 1.76000 10.56000 12.32000
112 2 1.76000 12.32000 10.56000
113 2 0.00000 10.56000 14.08000
114 2 0.00000 12.32000 15.84000
115 2 1.76000 10.56000 15.84000
116 2 1.76000 12.32000 14.08000
117 2 0.00000 10.56000 17.60000
118 2 0.00000 12.32000 19.36000
119 2 1.76000 10.56000 19.36000
120 2 1.76000 12.32000 17.60000
121 2 0.00000 10.56000 21.12000
122 2 0.00000 12.32000 22.88000
123 2 1.76000 10.56000 22.88000
124 2 1.76000 12.32000 21.12000
125 2 0.00000 10.56000 24.64000
126 2 0.00000 12.32000 26.40000
127 2 1.76000 10.56000 26.40000
128 2 1.76000 12.32000 24.64000
129 2 0.00000 14.08000 0.00000
130 2 0.00000 15.84000 1.76000
131 2 1.76000 14.08000 1.76000
132 2 1.76000 15.84000 0.00000
133 2 0.00000 14.08000 3.52000
134 2 0.00000 15.84000 5.28000
135 2 1.76000 14.08000 5.28000
136 2 1.76000 15.84000 3.52000
137 2 0.00000 14.08000 7.04000
138 2 0.00000 15.84000 8.80000
139 2 1.76000 14.08000 8.80000
140 2 1.76000 15.84000 7.04000
141 2 0.00000 14.08000 10.56000
142 2 0.00000 15.84000 12.32000
143 2 1.76000 14.08000 12.32000
144 2 1.76000 15.84000 10.56000
145 2 0.00000 14.08000 14.08000
146 2 0.00000 15.84000 15.84000
147 2 1.76000 14.08000 15.84000
148 2 1.76000 15.84000 14.08000
149 2 0.00000 14.08000 17.60000
150 2 0.00000 15.84000 19.36000
151 2 1.76000 14.08000 19.36000
152 2 1.76000 15.84000 17.60000
153 2 0.00000 14.08000 21.12000
154 2 0.00000 15.84000 22.88000
155 2 1.76000 14.08000 22.88000
156 2 1.76000 15.84000 21.12000
157 2 0.00000 14.08000 24.64000
158 2 0.00000 15.84000 26.40000
159 2 1.76000 14.08000 26.40000
160 2 1.76000 15.84000 24.64000
161 2 0.00000 17.60000 0.00000
162 2 0.00000 19.36000 1.76000
163 2 1.76000 17.60000 1.76000
164 2 1.76000 19.36000 0.00000
165 2 0.00000 17.60000 3.52000
166 2 0.00000 19.36000 5.28000
167 2 1.76000 17.60000 5.28000
168 2 1.76000 19.36000 3.52000
169 2 0.00000 17.60000 7.04000
170 2 0.00000 19.36000 8.80000
171 2 1.76000 17.60000 8.80000
172 2 1.76000 19.36000 7.04000
173 2 0.00000 17.60000 10.56000
174 2 0.00000 19.36000 12.32000
175 2 1.76000 17.60000 12.32000
176 2 1.76000 19.36000 10.56000
177 2 0.00000 17.60000 14.08000
178 2 0.00000 19.36000 15.84000
179 2 1.76000 17.60000 15.84000
180 2 1.76000 19.36000 14.08000
181 2 0.00000 17.60000 17.60000
182 2 0.00000 19.36000 19.36000
183 2 1.76000 17.60000 19.36000
184 2 1.76000 19.36000 17.60000
185 2 0.00000 17.60000 21.12000
186 2 0.00000 19.36000 22.88000
187 2 1.76000 17.60000 22.88000
188 2 1.76000 19.36000 21.12000
189 2 0.00000 17.60000 24.64000
190 2 0.00000 19.36000 26.40000
191 2 1.76000 17.60000 26.40000
192 2 1.76000 19.36000 24.64000
193 2 0.00000 21.12000 0.00000
194 2 0.00000 22.88000 1.76000
195 2 1.76000 21.12000 1.76000
196 2 1.76000 22.88000 0.00000
197 2 0.00000 21.12000 3.52000
198 2 0.00000 22.88000 5.28000
199 2 1.76000 21.12000 5.28000
200 2 1.76000 22.88000 3.52000
201 2 0.00000 21.12000 7.04000
202 2 0.00000 22.88000 8.80000
203 2 1.76000 21.12000 8.80000
204 2 1.76000 22.88000 7.04000
205 2 0.00000 21.12000 10.56000
206 2 0.00000 22.88000 12.32000
207 2 1.76000 21.12000 12.32000
208 2 1.76000 22.88000 10.56000
209 2 0.00000 21.12000 14.08000
210 2 0.00000 22.88000 15.84000
211 2 1.76000 21.12000 15.84000
212 2 1.76000 22.88000 14.08000
213 2 0.00000 21.12000 17.60000
214 2 0.00000 22.88000 19.36000
215 2 1.76000 21.12000 19.36000
216 2 1.76000 22.88000 17.60000
217 2 0.00000 21.12000 21.12000
218 2 0.00000 22.88000 22.88000
219 2 1.76000 21.12000 22.88000
220 2 1.76000 22.88000 21.12000
221 2 0.00000 21.12000 24.64000
222 2 0.00000 22.88000 26.40000
223 2 1.76000 21.12000 26.40000
224 2 1.76000 22.88000 24.64000
225 2 0.00000 24.64000 0.00000
226 2 0.00000 26.40000 1.76000
227 2 1.76000 24.64000 1.76000
228 2 1.76000 26.40000 0.00000
229 2 0.00000 24.64000 3.52000
230 2 0.00000 26.40000 5.28000
231 2 1.76000 24.64000 5.28000
232 2 1.76000 26.40000 3.52000
233 2 0.00000 24.64000 7.04000
234 2 0.00000 26.40000 8.80000
235 2 1.76000 24.64000 8.80000
236 2 1.76000 26.40000 7.04000
237 2 0.00000 24.64000 10.56000
238 2 0.00000 26.40000 12.32000
239 2 1.76000 24.64000 12.32000
240 2 1.76000 26.40000 10.56000
241 2 0.00000 24.64000 14.08000
242 2 0.00000 26.40000 15.84000
243 2 1.76000 24.64000 15.84000
244 2 1.76000 26.40000 14.08000
245 2 0.00000 24.64000 17.60000
246 2 0.00000 26.40000 19.36000
247 2 1.76000 24.64000 19.36000
248 2 1.76000 26.40000 17.60000
249 2 0.00000 24.64000 21.12000
250 2 0.00000 26.40000 22.88000
251 2 1.76000 24.64000 22.88000
252 2 1.76000 26.40000 21.12000
253 2 0.00000 24.64000 24.64000
254 2 0.00000 26.40000 26.40000
255 2 1.76000 24.64000 26.40000
256 2 1.76000 26.40000 24.64000
257 2 3.52000 0.00000 0.00000
258 2 3.52000 1.76000 1.76000
259 2 5.28000 0.00000 1.76000
260 2 5.28000 1.76000 0.00000
261 2 3.52000 0.00000 3.52000
262 2 3.52000 1.76000 5.28000
263 2 5.28000 0.00000 5.28000
264 2 5.28000 1.76000 3.52000
265 2 3.52000 0.00000 7.04000
266 2 3.52000 1.76000 8.80000
267 2 5.28000 0.00000 8.80000
268 2 5.28000 1.76000 7.04000
269 2 3.52000 0.00000 10.56000
270 2 3.52000 1.76000 12.32000
271 2 5.28000 0.00000 12.32000
272 2 5.28000 1.76000 10.56000
273 2 3.52000 0.00000 14.08000
274 2 3.52000 1.76000 15.84000
275 2 5.28000 0.00000 15.84000
276 2 5.28000 1.76000 14.08000
277 2 3.52000 0.00000 17.60000
278 2 3.52000 1.76000 19.36000
279 2 5.28000 0.00000 19.36000
280 2 5.28000 1.76000 17.60000
281 2 3.52000 0.00000 21.12000
282 2 3.52000 1.76000 22.88000
283 2 5.28000 0.00000 22.88000
284 2 5.28000 1.76000 21.12000
285 2 3.52000 0.00000 24.64000
286 2 3.52000 1.76000 26.40000
287 2 5.28000 0.00000 26.40000
288 2 5.28000 1.76000 24.64000
289 2 3.52000 3.52000 0.00000
290 2 3.52000 5.28000 1.76000
291 2 5.28000 3.52000 1.76000
292 2 5.28000 5.28000 0.00000
293 2 3.52000 3.52000 3.52000
294 2 3.52000 5.28000 5.28000
295 2 5.28000 3.52000 5.28000
296 2 5.28000 5.28000 3.52000
297 2 3.52000 3.52000 7.04000
298 2 3.52000 5.28000 8.80000
299 2 5.28000 3.52000 8.80000
300 2 5.28000 5.28000 7.04000
301 2 3.52000 3.52000 10.56000
302 2 3.52000 5.28000 12.32000
303 2 5.28000 3.52000 12.32000
304 2 5.28000 5.28000 10.56000
305 2 3.52000 3.52000 14.08000
306 2 3.52000 5.28000 15.84000
307 2 5.28000 3.52000 15.84000
308 2 5.28000 5.28000 14.08000
309 2 3.52000 3.52000 17.60000
310 2 3.52000 5.28000 19.36000
311 2 5.28000 3.52000 19.36000
312 2 5.28000 5.28000 17.60000
313 2 3.52000 3.52000 21.12000
314 2 3.52000 5.28000 22.88000
315 2 5.28000 3.52000 22.88000
316 2 5.28000 5.28000 21.12000
317 2 3.52000 3.52000 24.64000
318 2 3.52000 5.28000 26.40000
319 2 5.28000 3.52000 26.40000
320 2 5.28000 5.28000 24.64000
321 2 3.52000 7.04000 0.00000
322 2 3.52000 8.80000 1.76000
323 2 5.28000 7.04000 1.76000
324 2 5.28000 8.80000 0.00000
325 2 3.52000 7.04000 3.52000
326 2 3.52000 8.80000 5.28000
327 2 5.28000 7.04000 5.28000
328 2 5.28000 8.80000 3.52000
329 2 3.52000 7.04000 7.04000
330 2 3.52000 8.80000 8.80000
331 2 5.28000 7.04000 8.80000
332 2 5.28000 8.80000 7.04000
333 2 3.52000 7.04000 10.56000
334 2 3.52000 8.80000 12.32000
335 2 5.28000 7.04000 12.32000
336 2 5.28000 8.80000 10.56000
337 2 3.52000 7.04000 14.08000
338 2 3.52000 8.80000 15.84000
339 2 5.28000 7.04000 15.84000
340 2 5.28000 8.80000 14.08000
341 2 3.52000 7.04000 17.60000
342 2 3.52000 8.80000 19.36000
343 2 5.28000 7.04000 19.36000
344 2 5.28000 8.80000 17.60000
345 2 3.52000 7.04000 21.12000
346 2 3.52000 8.80000 22.88000
347 2 5.28000 7.04000 22.88000
348 2 5.28000 8.80000 21.12000
349 2 3.52000 7.04000 24.64000
350 2 3.52000 8.80000 26.40000
351 2 5.28000 7.04000 26.40000
352 2 5.28000 8.80000 24.64000
353 2 3.52000 10.56000 0.00000
354 2 3.52000 12.32000 1.76000
355 2 5.28000 10.56000 1.76000
356 2 5.28000 12.32000 0.00000
357 2 3.52000 10.56000 3.52000
358 2 3.52000 12.32000 5.28000
359 2 5.28000 10.56000 5.28000
360 2 5.28000 12.32000 3.52000
361 2 3.52000 10.56000 7.04000
362 2 3.52000 12.32000 8.80000
363 2 5.28000 10.56000 8.80000
364 2 5.28000 12.32000 7.04000
365 2 3.52000 10.56000 10.56000
366 2 3.52000 12.32000 12.32000
367 2 5.28000 10.56000 12.32000
368 2 5.28000 12.32000 10.56000
369 2 3.52000 10.56000 14.08000
370 2 3.52000 12.32000 15.84000
371 2 5.28000 10.56000 15.84000
372 2 5.28000 12.32000 14.08000
373 2 3.52000 10.56000 17.60000
374 2 3.52000 12.32000 19.36000
375 2 5.28000 10.56000 19.36000
376 2 5.28000 12.32000 17.60000
377 2 3.52000 10.56000 21.12000
378 2 3.52000 12.32000 22.88000
379 2 5.28000 10.56000 22.88000
380 2 5.28000 12.32000 21.12000
381 2 3.52000 10.56000 24.64000
382 2 3.52000 12.32000 26.40000
383 2 5.28000 10.56000 26.40000
384 2 5.28000 12.32000 24.64000
385 2 3.52000 14.08000 0.00000
386 2 3.52000 15.84000 1.76000
387 2 5.28000 14.08000 1.76000
388 2 5.28000 15.84000 0.00000
389 2 3.52000 14.08000 3.52000
390 2 3.52000 15.84000 5.28000
391 2 5.28000 14.08000 5.28000
392 2 5.28000 15.84000 3.52000
393 2 3.52000 14.08000 7.04000
394 2 3.52000 15.84000 8.80000
395 2 5.28000 14.08000 8.80000
396 2 5.28000 15.84000 7.04000
397 2 3.52000 14.08000 10.56000
398 2 3.52000 15.84000 12.32000
399 3 5.28000 14.08000 12.32000
400 2 5.28000 15.84000 10.56000
401 2 3.52000 14.08000 14.08000
402 2 3.52000 15.84000 15.84000
403 2 5.28000 14.08000 15.84000
404 2 5.28000 15.84000 14.08000
405 2 3.52000 14.08000 17.60000
406 2 3.52000 15.84000 19.36000
407 2 5.28000 14.08000 19.36000
408 2 5.28000 15.84000 17.60000
409 2 3.52000 14.08000 21.12000
410 2 3.52000 15.84000 22.88000
411 2 5.28000 14.08000 22.88000
412 2 5.28000 15.84000 21.12000
413 2 3.52000 14.08000 24.64000
414 2 3.52000 15.84000 26.40000
415 2 5.28000 14.08000 26.40000
416 2 5.28000 15.84000 24.64000
417 2 3.52000 17.60000 0.00000
418 2 3.52000 19.36000 1.76000
419 2 5.28000 17.60000 1.76000
420 2 5.28000 19.36000 0.00000
421 2 3.52000 17.60000 3.52000
422 2 3.52000 19.36000 5.28000
423 2 5.28000 17.60000 5.28000
424 2 5.28000 19.36000 3.52000
425 2 3.52000 17.60000 7.04000
426 2 3.52000 19.36000 8.80000
427 2 5.28000 17.60000 8.80000
428 2 5.28000 19.36000 7.04000
429 2 3.52000 17.60000 10.56000
430 2 3.52000 19.36000 12.32000
431 2 5.28000 17.60000 12.32000
432 2 5.28000 19.36000 10.56000
433 2 3.52000 17.60000 14.08000
434 2 3.52000 19.36000 15.84000
435 2 5.28000 17.60000 15.84000
436 2 5.28000 19.36000 14.08000
437 2 3.52000 17.60000 17.60000
438 2 3.52000 19.36000 19.36000
439 2 5.28000 17.60000 19.36000
440 2 5.28000 19.36000 17.60000
441 2 3.52000 17.60000 21.12000
442 2 3.52000 19.36000 22.88000
443 2 5.28000 17.60000 22.88000
444 2 5.28000 19.36000 21.12000
445 2 3.52000 17.60000 24.64000
446 2 3.52000 19.36000 26.40000
447 2 5.28000 17.60000 26.40000
448 2 5.28000 19.36000 24.64000
449 2 3.52000 21.12000 0.00000
450 2 3.52000 22.88000 1.76000
451 2 5.28000 21.12000 1.76000
452 2 5.28000 22.88000 0.00000
453 2 3.52000 21.12000 3.52000
454 2 3.52000 22.88000 5.28000
455 2 5.28000 21.12000 5.28000
456 2 5.28000 22.88000 3.52000
457 2 3.52000 21.12000 7.04000
458 2 3.52000 22.88000 8.80000
459 2 5.28000 21.12000 8.80000
460 2 5.28000 22.88000 7.04000
461 2 3.52000 21.12000 10.56000
462 2 3.52000 22.88000 12.32000
463 2 5.28000 21.12000 12.32000
464 2 5.28000 22.88000 10.56000
465 2 3.52000 21.12000 14.08000
466 2 3.52000 22.88000 15.84000
467 2 5.28000 21.12000 15.84000
468 2 5.28000 22.88000 14.08000
469 2 3.52000 21.12000 17.60000
470 2 3.52000 22.88000 19.36000
471 2 5.28000 21.12000 19.36000
472 2 5.28000 22.88000 17.60000
473 2 3.52000 21.12000 21.12000
474 2 3.52000 22.88000 22.88000
475 2 5.28000 21.12000 22.88000
476 2 5.28000 22.88000 21.12000
477 2 3.52000 21.12000 24.64000
478 2 3.52000 22.88000 26.40000
479 2 5.28000 21.12000 26.40000
480 2 5.28000 22.88000 24.64000
481 2 3.52000 24.64000 0.00000
482 2 3.52000 26.40000 1.76000
483 2 5.28000 24.64000 1.76000
484 2 5.28000 26.40000 0.00000
485 2 3.52000 24.64000 3.52000
486 2 3.52000 26.40000 5.28000
487 2 5.28000 24.64000 5.28000
488 2 5.28000 26.40000 3.52000
489 2 3.52000 24.64000 7.04000
490 2 3.52000 26.40000 8.80000
491 2 5.28000 24.64000 8.80000
492 2 5.28000 26.40000 7.04000
493 2 3.52000 24.64000 10.56000
494 2 3.52000 26.40000 12.32000
495 2 5.28000 24.64000 12.32000
496 2 5.28000 26.40000 10.56000
497 2 3.52000 24.64000 14.08000
498 2 3.52000 26.40000 15.84000
499 2 5.28000 24.64000 15.84000
500 2 5.28000 26.40000 14.08000
501 2 3.52000 24.64000 17.60000
502 2 3.52000 26.40000 19.36000
503 2 5.28000 24.64000 19.36000
504 2 5.28000 26.40000 17.60000
505 2 3.52000 24.64000 21.12000
506 2 3.52000 26.40000 22.88000
507 2 5.28000 24.64000 22.88000
508 2 5.28000 26.40000 21.12000
509 2 3.52000 24.64000 24.64000
510 2 3.52000 26.40000 26.40000
511 2 5.28000 24.64000 26.40000
512 2 5.28000 26.40000 24.64000
513 2 7.04000 0.00000 0.00000
514 2 7.04000 1.76000 1.76000
515 2 8.80000 0.00000 1.76000
516 2 8.80000 1.76000 0.00000
517 2 7.04000 0.00000 3.52000
518 2 7.04000 1.76000 5.28000
519 2 8.80000 0.00000 5.28000
520 2 8.80000 1.76000 3.52000
521 2 7.04000 0.00000 7.04000
522 2 7.04000 1.76000 8.80000
523 2 8.80000 0.00000 8.80000
524 2 8.80000 1.76000 7.04000
525 2 7.04000 0.00000 10.56000
526 2 7.04000 1.76000 12.32000
527 2 8.80000 0.00000 12.32000
528 2 8.80000 1.76000 10.56000
529 2 7.04000 0.00000 14.08000
530 2 7.04000 1.76000 15.84000
531 2 8.80000 0.00000 15.84000
532 2 8.80000 1.76000 14.08000
533 2 7.04000 0.00000 17.60000
534 2 7.04000 1.76000 19.36000
535 2 8.80000 0.00000 19.36000
536 2 8.80000 1.76000 17.60000
537 2 7.04000 0.00000 21.12000
538 2 7.04000 1.76000 22.88000
539 2 8.80000 0.00000 22.88000
540 2 8.80000 1.76000 21.12000
541 2 7.04000 0.00000 24.64000
542 2 7.04000 1.76000 26.40000
543 2 8.80000 0.00000 26.40000
544 2 8.80000 1.76000 24.64000
545 2 7.04000 3.52000 0.00000
546 2 7.04000 5.28000 1.76000
547 2 8.80000 3.52000 1.76000
548 2 8.80000 5.28000 0.00000
549 2 7.04000 3.52000 3.52000
550 2 7.04000 5.28000 5.28000
551 2 8.80000 3.52000 5.28000
552 2 8.80000 5.28000 3.52000
553 2 7.04000 3.52000 7.04000
554 2 7.04000 5.28000 8.80000
555 2 8.80000 3.52000 8.80000
556 2 8.80000 5.28000 7.04000
557 2 7.04000 3.52000 10.56000
558 2 7.04000 5.28000 12.32000
559 2 8.80000 3.52000 12.32000
560 2 8.80000 5.28000 10.56000
561 2 7.04000 3.52000 14.08000
562 2 7.04000 5.28000 15.84000
563 2 8.80000 3.52000 15.84000
564 2 8.80000 5.28000 14.08000
565 2 7.04000 3.52000 17.60000
566 2 7.04000 5.28000 19.36000
567 2 8.80000 3.52000 19.36000
568 2 8.80000 5.28000 17.60000
569 2 7.04000 3.52000 21.12000
570 2 7.04000 5.28000 22.88000
571 2 8.80000 3.52000 22.88000
572 2 8.80000 5.28000 21.12000
573 2 7.04000 3.52000 24.64000
574 2 7.04000 5.28000 26.40000
575 2 8.80000 3.52000 26.40000
576 2 8.80000 5.28000 24.64000
577 2 7.04000 7.04000 0.00000
578 2 7.04000 8.80000 1.76000
579 2 8.80000 7.04000 1.76000
580 2 8.80000 8.80000 0.00000
581 2 7.04000 7.04000 3.52000
582 2 7.04000 8.80000 5.28000
583 2 8.80000 7.04000 5.28000
584 2 8.80000 8.80000 3.52000
585 2 7.04000 7.04000 7.04000
586 2 7.04000 8.80000 8.80000
587 2 8.80000 7.04000 8.80000
588 2 8.80000 8.80000 7.04000
589 2 7.04000 7.04000 10.56000
590 2 7.04000 8.80000 12.32000
591 3 8.80000 7.04000 12.32000
592 2 8.80000 8.80000 10.56000
593 2 7.04000 7.04000 14.08000
594 2 7.04000 8.80000 15.84000
595 2 8.80000 7.04000 15.84000
596 2 8.80000 8.80000 14.08000
597 2 7.04000 7.04000 17.60000
598 2 7.04000 8.80000 19.36000
599 2 8.80000 7.04000 19.36000
600 2 8.80000 8.80000 17.60000
601 2 7.04000 7.04000 21.12000
602 2 7.04000 8.80000 22.88000
603 2 8.80000 7.04000 22.88000
604 2 8.80000 8.80000 21.12000
605 2 7.04000 7.04000 24.64000
606 2 7.04000 8.80000 26.40000
607 2 8.80000 7.04000 26.40000
608 2 8.80000 8.80000 24.64000
609 2 7.04000 10.56000 0.00000
610 2 7.04000 12.32000 1.76000
611 2 8.80000 10.56000 1.76000
612 2 8.80000 12.32000 0.00000
613 2 7.04000 10.56000 3.52000
614 2 7.04000 12.32000 5.28000
615 2 8.80000 10.56000 5.28000
616 2 8.80000 12.32000 3.52000
617 2 7.04000 10.56000 7.04000
618 2 7.04000 12.32000 8.80000
619 2 8.80000 10.56000 8.80000
620 3 8.80000 12.32000 7.04000
621 1 7.04000 10.56000 10.56000
622 2 7.04000 12.32000 12.32000
623 2 8.80000 10.56000 12.32000
624 2 8.80000 12.32000 10.56000
625 1 7.04000 10.56000 14.08000
626 2 7.04000 12.32000 15.84000
627 2 8.80000 10.56000 15.84000
628 2 8.80000 12.32000 14.08000
629 3 7.04000 10.56000 17.60000
630 2 7.04000 12.32000 19.36000
631 2 8.80000 10.56000 19.36000
632 2 8.80000 12.32000 17.60000
633 2 7.04000 10.56000 21.12000
634 2 7.04000 12.32000 22.88000
635 2 8.80000 10.56000 22.88000
636 2 8.80000 12.32000 21.12000
637 2 7.04000 10.56000 24.64000
638 2 7.04000 12.32000 26.40000
639 2 8.80000 10.56000 26.40000
640 2 8.80000 12.32000 24.64000
641 2 7.04000 14.08000 0.00000
642 2 7.04000 15.84000 1.76000
643 2 8.80000 14.08000 1.76000
644 2 8.80000 15.84000 0.00000
645 2 7.04000 14.08000 3.52000
646 2 7.04000 15.84000 5.28000
647 2 8.80000 14.08000 5.28000
648 2 8.80000 15.84000 3.52000
649 2 7.04000 14.08000 7.04000
650 3 7.04000 15.84000 8.80000
651 2 8.80000 14.08000 8.80000
652 2 8.80000 15.84000 7.04000
653 1 7.04000 14.08000 10.56000
654 2 7.04000 15.84000 12.32000
655 2 8.80000 14.08000 12.32000
656 2 8.80000 15.84000 10.56000
657 1 7.04000 14.08000 14.08000
658 2 7.04000 15.84000 15.84000
659 2 8.80000 14.08000 15.84000
660 2 8.80000 15.84000 14.08000
661 1 7.04000 14.08000 17.60000
662 2 7.04000 15.84000 19.36000
663 2 8.80000 14.08000 19.36000
664 2 8.80000 15.84000 17.60000
665 2 7.04000 14.08000 21.12000
666 2 7.04000 15.84000 22.88000
667 2 8.80000 14.08000 22.88000
668 2 8.80000 15.84000 21.12000
669 2 7.04000 14.08000 24.64000
670 2 7.04000 15.84000 26.40000
671 2 8.80000 14.08000 26.40000
672 2 8.80000 15.84000 24.64000
673 2 7.04000 17.60000 0.00000
674 2 7.04000 19.36000 1.76000
675 2 8.80000 17.60000 1.76000
676 2 8.80000 19.36000 0.00000
677 2 7.04000 17.60000 3.52000
678 2 7.04000 19.36000 5.28000
679 2 8.80000 17.60000 5.28000
680 2 8.80000 19.36000 3.52000
681 2 7.04000 17.60000 7.04000
682 2 7.04000 19.36000 8.80000
683 2 8.80000 17.60000 8.80000
684 2 8.80000 19.36000 7.04000
685 3 7.04000 17.60000 10.56000
686 2 7.04000 19.36000 12.32000
687 2 8.80000 17.60000 12.32000
688 2 8.80000 19.36000 10.56000
689 1 7.04000 17.60000 14.08000
690 2 7.04000 19.36000 15.84000
691 2 8.80000 17.60000 15.84000
692 2 8.80000 19.36000 14.08000
693 1 7.04000 17.60000 17.60000
694 2 7.04000 19.36000 19.36000
695 2 8.80000 17.60000 19.36000
696 2 8.80000 19.36000 17.60000
697 2 7.04000 17.60000 21.12000
698 2 7.04000 19.36000 22.88000
699 2 8.80000 17.60000 22.88000
700 2 8.80000 19.36000 21.12000
701 2 7.04000 17.60000 24.64000
702 2 7.04000 19.36000 26.40000
703 2 8.80000 17.60000 26.40000
704 2 8.80000 19.36000 24.64000
705 2 7.04000 21.12000 0.00000
706 2 7.04000 22.88000 1.76000
707 2 8.80000 21.12000 1.76000
708 2 8.80000 22.88000 0.00000
709 2 7.04000 21.12000 3.52000
710 2 7.04000 22.88000 5.28000
711 2 8.80000 21.12000 5.28000
712 2 8.80000 22.88000 3.52000
713 2 7.04000 21.12000 7.04000
714 2 7.04000 22.88000 8.80000
715 2 8.80000 21.12000 8.80000
716 2 8.80000 22.88000 7.04000
717 2 7.04000 21.12000 10.56000
718 2 7.04000 22.88000 12.32000
719 2 8.80000 21.12000 12.32000
720 2 8.80000 22.88000 10.56000
721 2 7.04000 21.12000 14.08000
722 2 7.04000 22.88000 15.84000
723 2 8.80000 21.12000 15.84000
724 2 8.80000 22.88000 14.08000
725 2 7.04000 21.12000 17.60000
726 2 7.04000 22.88000 19.36000
727 2 8.80000 21.12000 19.36000
728 2 8.80000 22.88000 17.60000
729 2 7.04000 21.12000 21.12000
730 2 7.04000 22.88000 22.88000
731 2 8.80000 21.12000 22.88000
732 2 8.80000 22.88000 21.12000
733 2 7.04000 21.12000 24.64000
734 2 7.04000 22.88000 26.40000
735 2 8.80000 21.12000 26.40000
736 2 8.80000 22.88000 24.64000
737 2 7.04000 24.64000 0.00000
738 2 7.04000 26.40000 1.76000
739 2 8.80000 24.64000 1.76000
740 2 8.80000 26.40000 0.00000
741 2 7.04000 24.64000 3.52000
742 2 7.04000 26.40000 5.28000
743 2 8.80000 24.64000 5.28000
744 2 8.80000 26.40000 3.52000
745 2 7.04000 24.64000 7.04000
746 2 7.04000 26.40000 8.80000
747 2 8.80000 24.64000 8.80000
748 2 8.80000 26.40000 7.04000
749 2 7.04000 24.64000 10.56000
750 2 7.04000 26.40000 12.32000
751 2 8.80000 24.64000 12.32000
752 2 8.80000 26.40000 10.56000
753 2 7.04000 24.64000 14.08000
754 2 7.04000 26.40000 15.84000
755 2 8.80000 24.64000 15.84000
756 2 8.80000 26.40000 14.08000
757 2 7.04000 24.64000 17.60000
758 2 7.04000 26.40000 19.36000
759 2 8.80000 24.64000 19.36000
760 2 8.80000 26.40000 17.60000
761 2 7.04000 24.64000 21.12000
762 2 7.04000 26.40000 22.88000
763 2 8.80000 24.64000 22.88000
764 2 8.80000 26.40000 21.12000
765 2 7.04000 24.64000 24.64000
766 2 7.04000 26.40000 26.40000
767 2 8.80000 24.64000 26.40000
768 2 8.80000 26.40000 24.64000
769 2 10.56000 0.00000 0.00000
770 2 10.56000 1.76000 1.76000
771 2 12.32000 0.00000 1.76000
772 2 12.32000 1.76000 0.00000
773 2 10.56000 0.00000 3.52000
774 2 10.56000 1.76000 5.28000
775 2 12.32000 0.00000 5.28000
776 2 12.32000 1.76000 3.52000
777 2 10.56000 0.00000 7.04000
778 2 10.56000 1.76000 8.80000
779 2 12.32000 0.00000 8.80000
780 2 12.32000 1.76000 7.04000
781 2 10.56000 0.00000 10.56000
782 2 10.56000 1.76000 12.32000
783 2 12.32000 0.00000 12.32000
784 2 12.32000 1.76000 10.56000
785 2 10.56000 0.00000 14.08000
786 2 10.56000 1.76000 15.84000
787 2 12.32000 0.00000 15.84000
788 2 12.32000 1.76000 14.08000
789 2 10.56000 0.00000 17.60000
790 2 10.56000 1.76000 19.36000
791 2 12.32000 0.00000 19.36000
792 2 12.32000 1.76000 17.60000
793 2 10.56000 0.00000 21.12000
794 2 10.56000 1.76000 22.88000
795 2 12.32000 0.00000 22.88000
796 2 12.32000 1.76000 21.12000
797 2 10.56000 0.00000 24.64000
798 2 10.56000 1.76000 26.40000
799 2 12.32000 0.00000 26.40000
800 2 12.32000 1.76000 24.64000
801 2 10.56000 3.52000 0.00000
802 2 10.56000 5.28000 1.76000
803 2 12.32000 3.52000 1.76000
804 2 12.32000 5.28000 0.00000
805 2 10.56000 3.52000 3.52000
806 2 10.56000 5.28000 5.28000
807 2 12.32000 3.52000 5.28000
808 2 12.32000 5.28000 3.52000
809 2 10.56000 3.52000 7.04000
810 2 10.56000 5.28000 8.80000
811 2 12.32000 3.52000 8.80000
812 2 12.32000 5.28000 7.04000
813 2 10.56000 3.52000 10.56000
814 3 10.56000 5.28000 12.32000
815 2 12.32000 3.52000 12.32000
816 2 12.32000 5.28000 10.56000
817 2 10.56000 3.52000 14.08000
818 2 10.56000 5.28000 15.84000
819 2 12.32000 3.52000 15.84000
820 2 12.32000 5.28000 14.08000
821 2 10.56000 3.52000 17.60000
822 2 10.56000 5.28000 19.36000
823 2 12.32000 3.52000 19.36000
824 2 12.32000 5.28000 17.60000
825 2 10.56000 3.52000 21.12000
826 2 10.56000 5.28000 22.88000
827 2 12.32000 3.52000 22.88000
828 2 12.32000 5.28000 21.12000
829 2 10.56000 3.52000 24.64000
830 2 10.56000 5.28000 26.40000
831 2 12.32000 3.52000 26.40000
832 2 12.32000 5.28000 24.64000
833 2 10.56000 7.04000 0.00000
834 2 10.56000 8.80000 1.76000
835 2 12.32000 7.04000 1.76000
836 2 12.32000 8.80000 0.00000
837 2 10.56000 7.04000 3.52000
838 2 10.56000 8.80000 5.28000
839 2 12.32000 7.04000 5.28000
840 2 12.32000 8.80000 3.52000
841 2 10.56000 7.04000 7.04000
842 3 10.56000 8.80000 8.80000
843 2 12.32000 7.04000 8.80000
844 2 12.32000 8.80000 7.04000
845 3 10.56000 7.04000 10.56000
846 2 10.56000 8.80000 12.32000
847 2 12.32000 7.04000 12.32000
848 2 12.32000 8.80000 10.56000
849 1 10.56000 7.04000 14.08000
850 2 10.56000 8.80000 15.84000
851 2 12.32000 7.04000 15.84000
852 2 12.32000 8.80000 14.08000
853 1 10.56000 7.04000 17.60000
854 2 10.56000 8.80000 19.36000
855 2 12.32000 7.04000 19.36000
856 2 12.32000 8.80000 17.60000
857 2 10.56000 7.04000 21.12000
858 2 10.56000 8.80000 22.88000
859 2 12.32000 7.04000 22.88000
860 2 12.32000 8.80000 21.12000
861 2 10.56000 7.04000 24.64000
862 2 10.56000 8.80000 26.40000
863 2 12.32000 7.04000 26.40000
864 2 12.32000 8.80000 24.64000
865 2 10.56000 10.56000 0.00000
866 2 10.56000 12.32000 1.76000
867 2 12.32000 10.56000 1.76000
868 2 12.32000 12.32000 0.00000
869 2 10.56000 10.56000 3.52000
870 2 10.56000 12.32000 5.28000
871 2 12.32000 10.56000 5.28000
872 2 12.32000 12.32000 3.52000
873 1 10.56000 10.56000 7.04000
874 2 10.56000 12.32000 8.80000
875 2 12.32000 10.56000 8.80000
876 2 12.32000 12.32000 7.04000
877 1 10.56000 10.56000 10.56000
878 2 10.56000 12.32000 12.32000
879 2 12.32000 10.56000 12.32000
880 2 12.32000 12.32000 10.56000
881 1 10.56000 10.56000 14.08000
882 2 10.56000 12.32000 15.84000
883 2 12.32000 10.56000 15.84000
884 2 12.32000 12.32000 14.08000
885 1 10.56000 10.56000 17.60000
886 2 10.56000 12.32000 19.36000
887 2 12.32000 10.56000 19.36000
888 2 12.32000 12.32000 17.60000
889 3 10.56000 10.56000 21.12000
890 2 10.56000 12.32000 22.88000
891 2 12.32000 10.56000 22.88000
892 2 12.32000 12.32000 21.12000
893 2 10.56000 10.56000 24.64000
894 2 10.56000 12.32000 26.40000
895 2 12.32000 10.56000 26.40000
896 2 12.32000 12.32000 24.64000
897 2 10.56000 14.08000 0.00000
898 2 10.56000 15.84000 1.76000
899 2 12.32000 14.08000 1.76000
900 2 12.32000 15.84000 0.00000
901 2 10.56000 14.08000 3.52000
902 2 10.56000 15.84000 5.28000
903 2 12.32000 14.08000 5.28000
904 2 12.32000 15.84000 3.52000
905 1 10.56000 14.08000 7.04000
906 2 10.56000 15.84000 8.80000
907 2 12.32000 14.08000 8.80000
908 2 12.32000 15.84000 7.04000
909 1 10.56000 14.08000 10.56000
910 2 10.56000 15.84000 12.32000
911 2 12.32000 14.08000 12.32000
912 2 12.32000 15.84000 10.56000
913 1 10.56000 14.08000 14.08000
914 2 10.56000 15.84000 15.84000
915 2 12.32000 14.08000 15.84000
916 2 12.32000 15.84000 14.08000
917 1 10.56000 14.08000 17.60000
918 2 10.56000 15.84000 19.36000
919 2 12.32000 14.08000 19.36000
920 2 12.32000 15.84000 17.60000
921 1 10.56000 14.08000 21.12000
922 2 10.56000 15.84000 22.88000
923 2 12.32000 14.08000 22.88000
924 2 12.32000 15.84000 21.12000
925 2 10.56000 14.08000 24.64000
926 2 10.56000 15.84000 26.40000
927 2 12.32000 14.08000 26.40000
928 2 12.32000 15.84000 24.64000
929 2 10.56000 17.60000 0.00000
930 2 10.56000 19.36000 1.76000
931 2 12.32000 17.60000 1.76000
932 2 12.32000 19.36000 0.00000
933 2 10.56000 17.60000 3.52000
934 2 10.56000 19.36000 5.28000
935 2 12.32000 17.60000 5.28000
936 2 12.32000 19.36000 3.52000
937 1 10.56000 17.60000 7.04000
938 2 10.56000 19.36000 8.80000
939 2 12.32000 17.60000 8.80000
940 2 12.32000 19.36000 7.04000
941 1 10.56000 17.60000 10.56000
942 2 10.56000 19.36000 12.32000
943 2 12.32000 17.60000 12.32000
944 2 12.32000 19.36000 10.56000
945 1 10.56000 17.60000 14.08000
946 2 10.56000 19.36000 15.84000
947 2 12.32000 17.60000 15.84000
948 2 12.32000 19.36000 14.08000
949 1 10.56000 17.60000 17.60000
950 2 10.56000 19.36000 19.36000
951 2 12.32000 17.60000 19.36000
952 2 12.32000 19.36000 17.60000
953 3 10.56000 17.60000 21.12000
954 2 10.56000 19.36000 22.88000