ITEM: TIMESTEP
0
ITEM: NUMBER OF ATOMS
1800
ITEM: BOX BOUNDS pp pp pp
0.0 155.550000
0.0 68.800943
-0.5 0.5
ITEM: ATOMS id type x y z c_stress c_pe
1 1 -0.007972 0.005255 0.000000 0.120211 -3.538620
2 1 2.532490 -0.004053 0.000000 0.111344 -3.541622
3 1 5.090609 0.015386 0.000000 0.117646 -3.544726
4 1 7.642113 0.003338 0.000000 0.100088 -3.539422
5 1 10.191279 0.019994 0.000000 0.084436 -3.542191
6 1 12.772151 0.027534 0.000000 0.118279 -3.542471
7 1 15.285936 -0.006990 0.000000 0.209041 -3.537073
8 1 17.830072 0.029941 0.000000 0.144865 -3.554573
9 1 20.364114 -0.006164 0.000000 0.118343 -3.526798
10 1 22.952898 -0.023807 0.000000 0.079910 -3.530757
11 1 25.478983 -0.036398 0.000000 0.071612 -3.553084
12 1 28.046413 0.003609 0.000000 0.025984 -3.538707
13 1 30.618895 -0.040030 0.000000 0.100830 -3.546326
14 1 33.139652 0.017027 0.000000 0.083328 -3.545116
15 1 35.683777 -0.008032 0.000000 0.149483 -3.535091
16 1 38.247775 -0.002320 0.000000 0.108025 -3.536015
17 1 40.768569 -0.006406 0.000000 0.078448 -3.534215
18 1 43.401513 -0.002659 0.000000 0.160043 -3.547711
19 1 45.887558 0.001270 0.000000 0.075045 -3.545314
20 1 48.450062 -0.006009 0.000000 0.154147 -3.540548
21 1 50.999255 0.018617 0.000000 0.121707 -3.535093
22 1 53.541585 0.004602 0.000000 0.092670 -3.529427
23 1 56.118081 0.011282 0.000000 0.143253 -3.536410
24 1 58.677564 0.013715 0.000000 0.161856 -3.539334
25 1 61.198220 0.022551 0.000000 -0.019777 -3.523545
26 1 63.733454 0.023272 0.000000 0.100231 -3.549030
27 1 66.272218 0.015493 0.000000 0.201881 -3.543929
28 1 68.850762 0.008044 0.000000 0.079201 -3.548705
29 1 71.375333 -0.002911 0.000000 0.112425 -3.542366
30 1 73.979875 -0.017460 0.000000 0.144351 -3.528394
31 1 76.523833 -0.003786 0.000000 0.080043 -3.536667
32 1 79.044593 0.004692 0.000000 0.038216 -3.553095
33 1 81.576300 0.032820 0.000000 0.148776 -3.528792
34 1 84.141691 -0.014855 0.000000 0.091338 -3.567997
35 1 86.659865 -0.005478 0.000000 0.103058 -3.542315
36 1 89.224885 -0.000019 0.000000 0.072934 -3.540502
37 1 91.791459 0.013444 0.000000 0.028057 -3.524483
38 1 94.341183 0.018124 0.000000 0.066319 -3.540267
39 1 96.904354 0.012612 0.000000 0.118946 -3.541548
40 1 99.458864 0.024221 0.000000 0.205183 -3.540626
41 1 101.986538 0.020880 0.000000 0.137569 -3.535550
42 1 104.515683 -0.007486 0.000000 0.182171 -3.547812
43 1 107.102597 -0.015190 0.000000 0.019435 -3.538370
44 1 109.629999 0.001749 0.000000 0.132638 -3.551398
45 1 112.219932 0.020212 0.000000 0.109537 -3.528360
46 1 114.731922 -0.014795 0.000000 0.170953 -3.550548
47 1 117.337639 0.012870 0.000000 0.091466 -3.544815
48 1 119.833437 0.009002 0.000000 0.051950 -3.528653
49 1 122.400865 -0.037057 0.000000 0.105826 -3.549092
50 1 124.969128 0.007915 0.000000 0.158024 -3.515064
51 1 127.511637 0.022795 0.000000 0.005974 -3.540056
52 1 130.061293 0.010920 0.000000 0.023519 -3.523404
53 1 132.606115 -0.002235 0.000000 0.118727 -3.547985
54 1 135.104004 -0.022903 0.000000 0.081781 -3.536924
55 1 137.697853 0.021404 0.000000 0.067373 -3.527132
56 1 140.241383 -0.021951 0.000000 0.065965 -3.543283
57 1 142.812178 -0.003550 0.000000 0.133232 -3.544489
58 1 145.347680 -0.022664 0.000000 0.172890 -3.538167
59 1 147.925470 0.031406 0.000000 0.270899 -3.530589
60 1 150.464646 -0.016838 0.000000 0.127433 -3.544451
61 1 1.277511 2.192048 0.000000 0.184399 -3.552332
62 1 3.816512 2.226220 0.000000 -0.023573 -3.553608
63 1 6.374744 2.220493 0.000000 0.093169 -3.543327
64 1 8.906666 2.193760 0.000000 0.054549 -3.534705
65 1 11.441431 2.203097 0.000000 0.107884 -3.537343
66 1 14.011959 2.246258 0.000000 0.185748 -3.548483
67 1 16.593102 2.220200 0.000000 0.060115 -3.538342
68 1 19.141029 2.253151 0.000000 0.061136 -3.542256
69 1 21.645532 2.228011 0.000000 0.207819 -3.530219
70 1 24.226572 2.187017 0.000000 0.149806 -3.531659
71 1 26.779716 2.221326 0.000000 0.063847 -3.530854
72 1 29.331596 2.204180 0.000000 0.100755 -3.537237
73 1 31.861013 2.187443 0.000000 0.106658 -3.540656
74 1 34.420044 2.167550 0.000000 0.215032 -3.533808
75 1 36.978832 2.217364 0.000000 0.061845 -3.536736
76 1 39.526085 2.212822 0.000000 0.055748 -3.556329
77 1 42.077223 2.222362 0.000000 0.081428 -3.535597
78 1 44.606531 2.200987 0.000000 0.072078 -3.549103
79 1 47.185562 2.211261 0.000000 0.158302 -3.541201
80 1 49.740605 2.224163 0.000000 0.087004 -3.561926
81 1 52.299116 2.211015 0.000000 0.141033 -3.549652
82 1 54.833715 2.204698 0.000000 0.091647 -3.533276
83 1 57.360203 2.198602 0.000000 0.140145 -3.554670
84 1 59.937181 2.205174 0.000000 0.164499 -3.532613
85 1 62.476228 2.206705 0.000000 0.139855 -3.531913
86 1 65.036023 2.210632 0.000000 0.105132 -3.544123
87 1 67.571291 2.202413 0.000000 -0.013412 -3.533811
88 1 70.150060 2.224332 0.000000 0.132209 -3.530932
89 1 72.690629 2.174989 0.000000 0.020966 -3.520630
90 1 75.220906 2.200738 0.000000 0.104955 -3.529422
91 1 77.746457 2.228908 0.000000 0.144450 -3.539466
92 1 80.366799 2.226329 0.000000 0.106827 -3.543174
93 1 82.884279 2.174548 0.000000 0.093875 -3.534977
94 1 85.449894 2.178118 0.000000 0.032423 -3.550442
95 1 87.994060 2.206496 0.000000 0.095650 -3.529584
96 1 90.544431 2.189371 0.000000 0.032021 -3.553783
97 1 93.093578 2.208748 0.000000 0.055062 -3.527606
98 1 95.652961 2.223710 0.000000 0.104009 -3.554401
99 1 98.196326 2.224825 0.000000 0.058214 -3.546915
100 1 100.719935 2.202627 0.000000 0.099075 -3.546654
101 1 103.277859 2.192293 0.000000 0.113042 -3.530949
102 1 105.827410 2.212346 0.000000 0.210236 -3.558165
103 1 108.399276 2.190941 0.000000 0.088667 -3.556851
104 1 110.994722 2.259567 0.000000 0.108966 -3.549369
105 1 113.481111 2.203485 0.000000 0.068579 -3.544855
106 1 116.039072 2.223368 0.000000 0.135937 -3.537321
107 1 118.565484 2.205025 0.000000 0.056158 -3.548347
108 1 121.107775 2.239795 0.000000 -0.032668 -3.545920
109 1 123.663235 2.190344 0.000000 0.045171 -3.552919
110 1 126.231987 2.214389 0.000000 0.102089 -3.535587
111 1 128.792138 2.170482 0.000000 0.110367 -3.558944
112 1 131.329554 2.198732 0.000000 0.052723 -3.528389
113 1 133.906347 2.190029 0.000000 0.134299 -3.539985
114 1 136.432182 2.222385 0.000000 0.166501 -3.525900
115 1 138.978452 2.201901 0.000000 0.151046 -3.521931
116 1 141.504645 2.224424 0.000000 0.187513 -3.537360
117 1 144.081548 2.224313 0.000000 0.059511 -3.549555
118 1 146.622746 2.212006 0.000000 0.028335 -3.550066
119 1 149.195481 2.203267 0.000000 0.125042 -3.533521
120 1 151.748939 2.181587 0.000000 0.047593 -3.539835
121 1 -0.040610 4.403568 0.000000 0.142026 -3.527805
122 1 2.559584 4.440856 0.000000 0.160667 -3.534954
123 1 5.081389 4.412594 0.000000 0.121854 -3.549733
124 1 7.654997 4.419887 0.000000 0.193664 -3.546766
125 1 10.229418 4.422578 0.000000 0.057840 -3.541881
126 1 12.775760 4.435104 0.000000 0.139939 -3.528056
127 1 15.320499 4.398183 0.000000 0.146643 -3.555233
128 1 17.820393 4.371439 0.000000 0.084059 -3.534512
129 1 20.411068 4.419833 0.000000 0.087210 -3.543925
130 1 22.942761 4.391259 0.000000 0.108818 -3.545110
131 1 25.498296 4.437236 0.000000 0.065495 -3.532152
132 1 28.036572 4.395328 0.000000 0.124715 -3.528766
133 1 30.621003 4.399416 0.000000 0.213646 -3.541240
134 1 33.175410 4.407317 0.000000 0.152097 -3.526736
135 1 35.673801 4.389891 0.000000 0.030051 -3.535844
136 1 38.257978 4.395817 0.000000 0.052202 -3.538756
137 1 40.775026 4.410567 0.000000 0.075530 -3.546552
138 1 43.343564 4.427067 0.000000 0.024840 -3.549082
139 1 45.880725 4.417841 0.000000 0.053081 -3.530604
140 1 48.473159 4.434629 0.000000 0.072505 -3.537038
141 1 51.023483 4.413056 0.000000 0.158583 -3.534229
142 1 53.525641 4.418553 0.000000 0.080342 -3.556521
143 1 56.082152 4.413878 0.000000 0.108045 -3.526046
144 1 58.612671 4.438409 0.000000 0.165332 -3.545386
145 1 61.187992 4.436231 0.000000 0.111164 -3.566399
146 1 63.766523 4.390920 0.000000 0.107461 -3.523914
147 1 66.310045 4.412254 0.000000 0.093273 -3.545406
148 1 68.837051 4.386341 0.000000 0.110646 -3.545663
149 1 71.400303 4.466155 0.000000 0.127635 -3.528475
150 1 73.947950 4.416728 0.000000 0.158598 -3.513980
151 1 76.487320 4.391173 0.000000 0.125910 -3.532295
152 1 79.063139 4.398321 0.000000 0.108317 -3.529581
153 1 81.620414 4.393512 0.000000 0.070233 -3.527050
154 1 84.155545 4.417235 0.000000 0.153712 -3.541337
155 1 86.709400 4.364444 0.000000 0.146918 -3.541679
156 1 89.220088 4.404432 0.000000 0.028614 -3.544466
157 1 91.797392 4.412284 0.000000 0.133767 -3.553857
158 1 94.365268 4.381866 0.000000 0.138181 -3.532202
159 1 96.883256 4.440336 0.000000 0.014061 -3.531722
160 1 99.439300 4.430266 0.000000 0.187868 -3.522419
161 1 102.024469 4.424158 0.000000 0.130577 -3.537052
162 1 104.529190 4.418556 0.000000 0.107032 -3.540207
163 1 107.106992 4.433894 0.000000 0.094842 -3.543491
164 1 109.629973 4.418204 0.000000 0.075329 -3.530902
165 1 112.212332 4.425990 0.000000 0.025320 -3.521730
166 1 114.764744 4.453982 0.000000 0.083040 -3.548963
167 1 117.340522 4.394933 0.000000 0.036431 -3.533243
168 1 119.856299 4.418363 0.000000 0.049786 -3.535786
169 1 122.370447 4.440382 0.000000 0.211468 -3.549451
170 1 124.975168 4.427267 0.000000 0.094474 -3.549512
171 1 127.494821 4.416727 0.000000 0.139260 -3.532524
172 1 130.046656 4.405755 0.000000 0.111568 -3.532107
173 1 132.560858 4.408137 0.000000 0.062623 -3.545796
174 1 135.153873 4.431058 0.000000 0.028647 -3.552683
175 1 137.686819 4.448748 0.000000 0.065011 -3.538931
176 1 140.236352 4.441255 0.000000 0.118794 -3.529158
177 1 142.759240 4.433957 0.000000 -0.006817 -3.534976
178 1 145.341097 4.418662 0.000000 0.143930 -3.535218
179 1 147.880916 4.434036 0.000000 0.166694 -3.553931
180 1 150.478887 4.427617 0.000000 0.064230 -3.541383
181 1 1.253874 6.607726 0.000000 0.113457 -3.550498
182 1 3.781660 6.619544 0.000000 0.105250 -3.546113
183 1 6.392122 6.634917 0.000000 0.029132 -3.531885
184 1 8.917763 6.617124 0.000000 0.151636 -3.535671
185 1 11.510787 6.662423 0.000000 0.138109 -3.526493
186 1 14.033443 6.638456 0.000000 0.115521 -3.549895
187 1 16.567295 6.650593 0.000000 0.110387 -3.521703
188 1 19.155880 6.610435 0.000000 0.195727 -3.533887
189 1 21.684792 6.640199 0.000000 0.091251 -3.541468
190 1 24.239479 6.628765 0.000000 0.085035 -3.545120
191 1 26.793246 6.613959 0.000000 0.087996 -3.536581
192 1 29.352787 6.634263 0.000000 0.152828 -3.532868
193 1 31.891663 6.649871 0.000000 0.070779 -3.548537
194 1 34.396509 6.608985 0.000000 0.140596 -3.525048
195 1 36.967057 6.644824 0.000000 0.166631 -3.543683
196 1 39.533929 6.636415 0.000000 0.010723 -3.553147
197 1 42.014757 6.622909 0.000000 0.096671 -3.557671
198 1 44.632978 6.648320 0.000000 -0.002248 -3.552539
199 1 47.187473 6.636618 0.000000 0.111749 -3.518847
200 1 49.719565 6.597535 0.000000 0.104004 -3.538373
201 1 52.265583 6.614039 0.000000 0.082222 -3.546322
202 1 54.833056 6.624848 0.000000 0.018359 -3.555413
203 1 57.369790 6.676700 0.000000 0.092652 -3.527241
204 1 59.956498 6.626848 0.000000 -0.004812 -3.559034
205 1 62.482597 6.623995 0.000000 0.150531 -3.533539
206 1 65.009138 6.631833 0.000000 0.042159 -3.537408
207 1 67.586373 6.639095 0.000000 0.104767 -3.554206
208 1 70.108374 6.628508 0.000000 0.022562 -3.533986
209 1 72.651900 6.656561 0.000000 0.081168 -3.550795
210 1 75.238689 6.618198 0.000000 0.105674 -3.530647
211 1 77.806578 6.626920 0.000000 0.080345 -3.541977
212 1 80.315472 6.633243 0.000000 0.061526 -3.532226
213 1 82.880866 6.646270 0.000000 0.132166 -3.526453
214 1 85.393821 6.615308 0.000000 0.153755 -3.526382
215 1 87.973628 6.651151 0.000000 0.056165 -3.535760
216 1 90.500334 6.644104 0.000000 0.168808 -3.562970
217 1 93.125498 6.597781 0.000000 0.097954 -3.540984
218 1 95.640232 6.647436 0.000000 0.110366 -3.526663
219 1 98.161520 6.653592 0.000000 0.025674 -3.534628
220 1 100.731633 6.624359 0.000000 0.073966 -3.547417
221 1 103.271959 6.648156 0.000000 0.126468 -3.539235
222 1 105.838287 6.645798 0.000000 0.064828 -3.552743
223 1 108.356539 6.638276 0.000000 0.118695 -3.532876
224 1 110.955359 6.620026 0.000000 0.061620 -3.532942
225 1 113.478824 6.659118 0.000000 0.087761 -3.535200
226 1 116.040985 6.635563 0.000000 0.142414 -3.540019
227 1 118.577462 6.600170 0.000000 0.139336 -3.541786
228 1 121.126519 6.647389 0.000000 0.085761 -3.539665
229 1 123.631187 6.626657 0.000000 0.079038 -3.537963
230 1 126.237046 6.571562 0.000000 0.049523 -3.549621
231 1 128.825241 6.631400 0.000000 0.122226 -3.535190
232 1 131.297143 6.628563 0.000000 0.155806 -3.534541
233 1 133.866017 6.642920 0.000000 0.070381 -3.517551
234 1 136.398068 6.599092 0.000000 0.076875 -3.544790
235 1 138.995661 6.606105 0.000000 0.173433 -3.536726
236 1 141.519276 6.649312 0.000000 0.069723 -3.521086
237 1 144.103098 6.665142 0.000000 0.079860 -3.536714
238 1 146.641853 6.638399 0.000000 0.016371 -3.558702
239 1 149.151951 6.649657 0.000000 0.178278 -3.534233
240 1 151.700119 6.645485 0.000000 0.033602 -3.545705
241 1 0.006269 8.845084 0.000000 0.099701 -3.554603
242 1 2.543246 8.852930 0.000000 0.111402 -3.559677
243 1 5.105250 8.850591 0.000000 0.034382 -3.535070
244 1 7.651531 8.818209 0.000000 0.158495 -3.546190
245 1 10.189874 8.827523 0.000000 0.066304 -3.546834
246 1 12.769184 8.854643 0.000000 0.081682 -3.539933
247 1 15.281727 8.847934 0.000000 0.095521 -3.554795
248 1 17.853623 8.847394 0.000000 0.110840 -3.531342
249 1 20.400169 8.844306 0.000000 0.118136 -3.543742
250 1 22.949623 8.788368 0.000000 0.057320 -3.544852
251 1 25.473852 8.816269 0.000000 0.222216 -3.529632
252 1 28.042590 8.820348 0.000000 0.200420 -3.554866
253 1 30.605711 8.852564 0.000000 0.129750 -3.546935
254 1 33.133216 8.829422 0.000000 -0.001225 -3.548365
255 1 35.686595 8.797616 0.000000 0.121311 -3.567435
256 1 38.229885 8.858479 0.000000 0.060535 -3.535878
257 1 40.801595 8.804946 0.000000 0.088032 -3.541377
258 1 43.349167 8.829691 0.000000 0.124405 -3.568146
259 1 45.906739 8.835983 0.000000 0.215918 -3.537303
260 1 48.443326 8.844614 0.000000 0.095227 -3.544375
261 1 51.000100 8.837774 0.000000 0.098877 -3.533517
262 1 53.544776 8.843020 0.000000 0.131674 -3.537019
263 1 56.098656 8.807117 0.000000 0.163221 -3.518688
264 1 58.630316 8.843830 0.000000 0.082304 -3.546465
265 1 61.227973 8.803703 0.000000 0.075114 -3.547855
266 1 63.713717 8.825733 0.000000 0.134196 -3.531444
267 1 66.320799 8.868164 0.000000 0.122656 -3.534530
268 1 68.862109 8.841685 0.000000 0.093084 -3.526081
269 1 71.373265 8.864635 0.000000 0.079818 -3.548773
270 1 73.957214 8.834100 0.000000 0.107661 -3.517744
271 1 76.504247 8.803072 0.000000 0.097054 -3.548078
272 1 79.051169 8.872469 0.000000 0.065039 -3.549820
273 1 81.605416 8.854197 0.000000 0.185144 -3.550175
274 1 84.158992 8.836706 0.000000 0.184749 -3.535793
275 1 86.669324 8.828924 0.000000 0.140311 -3.545840
276 1 89.221896 8.824442 0.000000 0.098521 -3.541422
277 1 91.828455 8.874032 0.000000 0.178358 -3.543816
278 1 94.331168 8.815084 0.000000 0.140344 -3.550115
279 1 96.943584 8.851663 0.000000 0.067354 -3.558537
280 1 99.446385 8.856776 0.000000 0.005404 -3.533441
281 1 102.007006 8.812281 0.000000 0.094500 -3.525237
282 1 104.589449 8.879870 0.000000 0.140057 -3.532205
283 1 107.085758 8.823802 0.000000 0.055146 -3.548578
284 1 109.671114 8.814605 0.000000 0.093556 -3.561524
285 1 112.196785 8.846368 0.000000 0.144721 -3.549552
286 1 114.746500 8.841604 0.000000 0.111649 -3.525738
287 1 117.275484 8.852445 0.000000 0.126756 -3.545328
288 1 119.876729 8.817261 0.000000 0.077366 -3.528456
289 1 122.372710 8.815789 0.000000 0.080098 -3.519887
290 1 124.945531 8.823481 0.000000 0.096336 -3.544713
291 1 127.489425 8.813896 0.000000 0.120620 -3.543588
292 1 130.044557 8.869030 0.000000 0.195733 -3.545295
293 1 132.624548 8.794012 0.000000 0.159213 -3.532982
294 1 135.143504 8.818026 0.000000 0.077151 -3.532581
295 1 137.693917 8.830740 0.000000 0.102628 -3.512355
296 1 140.253942 8.805496 0.000000 0.052424 -3.541473
297 1 142.791878 8.862117 0.000000 0.092777 -3.520765
298 1 145.356044 8.863002 0.000000 0.104157 -3.536245
299 1 147.908660 8.842849 0.000000 0.024277 -3.541167
300 1 150.454502 8.882378 0.000000 0.141009 -3.535429
301 1 1.298648 11.042982 0.000000 0.132851 -3.555359
302 1 3.813666 11.046472 0.000000 0.179262 -3.539232
303 1 6.381507 11.039909 0.000000 0.087931 -3.531917
304 1 8.935656 11.032284 0.000000 0.209233 -3.557036
305 1 11.481065 11.032544 0.000000 0.129211 -3.547514
306 1 14.023956 11.004167 0.000000 0.205322 -3.541859
307 1 16.563243 11.044865 0.000000 0.070732 -3.542953
308 1 19.156361 11.082393 0.000000 0.110891 -3.545219
309 1 21.651386 11.036670 0.000000 0.040538 -3.544162
310 1 24.202711 11.046824 0.000000 0.120229 -3.538421
311 1 26.787556 11.021428 0.000000 0.156390 -3.563751
312 1 29.320536 11.042196 0.000000 0.121724 -3.530479
313 1 31.872944 11.083959 0.000000 0.047546 -3.568114
314 1 34.423921 11.015634 0.000000 0.047394 -3.530571
315 1 37.003856 11.021801 0.000000 0.069929 -3.541378
316 1 39.542595 11.062885 0.000000 0.049262 -3.539971
317 1 42.059208 11.045889 0.000000 0.122823 -3.560751
318 1 44.629028 11.068033 0.000000 0.115321 -3.536206
319 1 47.189827 11.029528 0.000000 0.069334 -3.559663
320 1 49.673538 11.041843 0.000000 0.094128 -3.546637
321 1 52.276252 11.004736 0.000000 0.028578 -3.530760
322 1 54.846135 11.035701 0.000000 0.031580 -3.549623
323 1 57.350250 11.030583 0.000000 0.113203 -3.530559
324 1 59.929547 11.055148 0.000000 0.058753 -3.527997
325 1 62.483930 11.018893 0.000000 0.112940 -3.554088
326 1 64.996436 11.059355 0.000000 0.098714 -3.546167
327 1 67.588796 11.052257 0.000000 0.099430 -3.546436
328 1 70.154534 11.044470 0.000000 0.095080 -3.525228
329 1 72.651939 11.010118 0.000000 0.022833 -3.529776
330 1 75.275239 11.037980 0.000000 -0.013715 -3.550430
331 1 77.782861 10.994680 0.000000 0.001596 -3.523274
332 1 80.296943 11.074453 0.000000 0.164763 -3.547426
333 1 82.895422 11.042504 0.000000 0.192195 -3.533521
334 1 85.437919 11.036023 0.000000 0.133508 -3.527110
335 1 87.973816 11.053665 0.000000 0.065325 -3.551394
336 1 90.550241 11.041462 0.000000 0.040896 -3.542721
337 1 93.082152 11.043177 0.000000 0.087064 -3.532243
338 1 95.665837 11.026593 0.000000 0.175162 -3.534063
339 1 98.239205 11.027682 0.000000 0.085599 -3.540760
340 1 100.714630 11.040618 0.000000 0.031357 -3.540698
341 1 103.250877 11.056004 0.000000 0.095683 -3.530994
342 1 105.830733 11.067453 0.000000 0.001016 -3.547595
343 1 108.382739 11.055689 0.000000 0.137136 -3.541133
344 1 110.912267 11.062422 0.000000 0.087893 -3.542212
345 1 113.490067 11.030116 0.000000 0.156136 -3.537747
346 1 116.006899 11.035948 0.000000 0.072711 -3.533049
347 1 118.597324 11.061720 0.000000 0.033737 -3.549424
348 1 121.140166 11.039623 0.000000 0.125855 -3.543539
349 1 123.660290 11.016312 0.000000 0.054984 -3.540698
350 1 126.225002 11.016150 0.000000 0.022747 -3.537302
351 1 128.764611 11.062696 0.000000 0.008607 -3.548833
352 1 131.308327 11.050400 0.000000 0.024702 -3.553060
353 1 133.850360 11.026973 0.000000 0.001979 -3.539254
354 1 136.408744 11.038479 0.000000 0.150764 -3.547657
355 1 138.973493 11.051724 0.000000 0.150538 -3.545826
356 1 141.543428 11.065411 0.000000 0.125669 -3.529520
357 1 144.085802 11.004090 0.000000 0.087892 -3.537119
358 1 146.653882 11.035242 0.000000 0.066807 -3.531578
359 1 149.186923 11.038526 0.000000 0.028841 -3.533481
360 1 151.749297 11.040455 0.000000 0.131194 -3.543959
361 1 0.049240 13.251494 0.000000 0.130829 -3.526991
362 1 2.550148 13.255614 0.000000 0.186591 -3.541218
363 1 5.080590 13.252867 0.000000 0.085583 -3.561330
364 1 7.636732 13.256523 0.000000 0.106286 -3.537139
365 1 10.194389 13.245482 0.000000 0.009060 -3.542135
366 1 12.782217 13.253791 0.000000 0.058797 -3.549254
367 1 15.323181 13.228975 0.000000 0.124577 -3.536940
368 1 17.863571 13.255010 0.000000 0.121802 -3.549301
369 1 20.370579 13.274743 0.000000 0.093463 -3.541380
370 1 22.955383 13.243897 0.000000 0.122443 -3.528795
371 1 25.475591 13.255101 0.000000 0.095226 -3.536789
372 1 28.067494 13.261628 0.000000 0.058191 -3.537822
373 1 30.582920 13.237958 0.000000 0.098634 -3.547306
374 1 33.138800 13.265157 0.000000 0.051076 -3.540110
375 1 35.708986 13.232755 0.000000 0.046870 -3.552938
376 1 38.233024 13.246081 0.000000 0.152503 -3.533989
377 1 40.816294 13.258640 0.000000 0.035554 -3.539211
378 1 43.348594 13.230824 0.000000 0.150860 -3.538023
379 1 45.901856 13.231000 0.000000 0.061207 -3.537513
380 1 48.453430 13.272439 0.000000 0.123279 -3.550517
381 1 50.994662 13.262539 0.000000 0.088973 -3.543458
382 1 53.525225 13.241785 0.000000 0.130641 -3.536829
383 1 56.122247 13.227052 0.000000 0.154678 -3.551062
384 1 58.656404 13.246994 0.000000 0.068385 -3.539102
385 1 61.191334 13.256660 0.000000 0.058974 -3.537503
386 1 63.776345 13.237307 0.000000 0.116287 -3.532580
387 1 66.306482 13.246085 0.000000 0.184241 -3.527081
388 1 68.874849 13.238572 0.000000 0.143997 -3.541703
389 1 71.394987 13.263075 0.000000 -0.002433 -3.520499
390 1 73.972073 13.276985 0.000000 0.183065 -3.530070
391 1 76.506315 13.250065 0.000000 0.087127 -3.521449
392 1 79.052360 13.244031 0.000000 0.149946 -3.530308
393 1 81.583176 13.226625 0.000000 0.103469 -3.545201
394 1 84.135121 13.257431 0.000000 0.183470 -3.532784
395 1 86.706304 13.267394 0.000000 0.175711 -3.538888
396 1 89.231640 13.268989 0.000000 0.134960 -3.543816
397 1 91.796239 13.249758 0.000000 0.050754 -3.534669
398 1 94.342531 13.236857 0.000000 0.085837 -3.538521
399 1 96.907411 13.258276 0.000000 0.124666 -3.532284
400 1 99.470518 13.247789 0.000000 0.068112 -3.545773
401 1 101.963887 13.236959 0.000000 0.009384 -3.543250
402 1 104.571808 13.224927 0.000000 0.053236 -3.540951
403 1 107.097255 13.199127 0.000000 0.092785 -3.547296
404 1 109.652268 13.244646 0.000000 0.086098 -3.545540
405 1 112.210044 13.260258 0.000000 0.088377 -3.542925
406 1 114.762820 13.243323 0.000000 0.078559 -3.538749
407 1 117.280681 13.235747 0.000000 0.110973 -3.541875
408 1 119.828944 13.266727 0.000000 0.151126 -3.529124
409 1 122.423343 13.214799 0.000000 0.055471 -3.547609
410 1 124.954077 13.235907 0.000000 0.052520 -3.538520
411 1 127.501154 13.212618 0.000000 0.075341 -3.553877
412 1 130.053519 13.251567 0.000000 0.053957 -3.529769
413 1 132.558533 13.232898 0.000000 0.180432 -3.554950
414 1 135.123236 13.254052 0.000000 0.086761 -3.539700
415 1 137.698050 13.232866 0.000000 0.025354 -3.543033
416 1 140.243021 13.257884 0.000000 0.102307 -3.532248
417 1 142.818448 13.285970 0.000000 0.091359 -3.538897
418 1 145.326924 13.256735 0.000000 0.182549 -3.539039
419 1 147.886479 13.235460 0.000000 0.126690 -3.542743
420 1 150.420306 13.223970 0.000000 0.135810 -3.546314
421 1 1.258878 15.485867 0.000000 0.053608 -3.541992
422 1 3.817120 15.474212 0.000000 0.083259 -3.528221
423 1 6.365275 15.467539 0.000000 0.086913 -3.523315
424 1 8.981262 15.469099 0.000000 0.038081 -3.545220
425 1 11.488539 15.426603 0.000000 0.184572 -3.547625
426 1 14.081071 15.457817 0.000000 0.121581 -3.555111
427 1 16.597090 15.475279 0.000000 0.074115 -3.523562
428 1 19.121507 15.477066 0.000000 0.156783 -3.552624
429 1 21.625983 15.442168 0.000000 -0.041923 -3.535561
430 1 24.230322 15.460503 0.000000 0.131486 -3.531904
431 1 26.798936 15.472981 0.000000 0.141147 -3.546313
432 1 29.333957 15.468643 0.000000 0.129189 -3.541187
433 1 31.872651 15.461483 0.000000 0.099591 -3.535835
434 1 34.415327 15.459176 0.000000 0.169652 -3.539780
435 1 36.968320 15.471783 0.000000 0.067143 -3.537701
436 1 39.507369 15.446523 0.000000 0.205420 -3.530056
437 1 42.070310 15.450575 0.000000 0.135539 -3.541225
438 1 44.581640 15.426426 0.000000 0.060705 -3.540117
439 1 47.195709 15.481602 0.000000 0.090761 -3.531450
440 1 49.744013 15.465585 0.000000 0.126082 -3.542003
441 1 52.274634 15.443492 0.000000 0.028298 -3.539069
442 1 54.834493 15.482668 0.000000 0.080763 -3.539296
443 1 57.384979 15.490873 0.000000 0.089024 -3.536867
444 1 59.942381 15.442965 0.000000 0.034325 -3.538846
445 1 62.477756 15.439749 0.000000 0.117727 -3.521133
446 1 65.011022 15.460269 0.000000 0.019000 -3.537763
447 1 67.552045 15.463142 0.000000 0.082841 -3.553908
448 1 70.112137 15.448261 0.000000 0.143090 -3.546964
449 1 72.671166 15.465175 0.000000 0.122153 -3.552163
450 1 75.255287 15.463118 0.000000 0.088510 -3.541505
451 1 77.781266 15.449210 0.000000 0.087834 -3.533730
452 1 80.331143 15.425690 0.000000 0.114596 -3.541625
453 1 82.835784 15.468431 0.000000 0.092716 -3.554080
454 1 85.413496 15.463044 0.000000 0.147228 -3.560709
455 1 87.992735 15.462488 0.000000 0.195358 -3.530194
456 1 90.531206 15.450733 0.000000 0.102465 -3.539095
457 1 93.083828 15.458002 0.000000 0.083754 -3.532323
458 1 95.626185 15.438516 0.000000 0.114762 -3.526734
459 1 98.177604 15.466414 0.000000 -0.015389 -3.559745
460 1 100.726134 15.466373 0.000000 0.127740 -3.535151
461 1 103.250400 15.483032 0.000000 0.090399 -3.542202
462 1 105.807304 15.466226 0.000000 0.148448 -3.558155
463 1 108.376711 15.445883 0.000000 0.044886 -3.547403
464 1 110.917911 15.475121 0.000000 0.103116 -3.549862
465 1 113.486430 15.447433 0.000000 0.062562 -3.533912
466 1 116.013131 15.457833 0.000000 0.095284 -3.522409
467 1 118.598726 15.465476 0.000000 0.136736 -3.533356
468 1 121.127543 15.476611 0.000000 0.122476 -3.532056
469 1 123.681041 15.418534 0.000000 0.064273 -3.539851
470 1 126.225327 15.423546 0.000000 0.052857 -3.524538
471 1 128.793929 15.476529 0.000000 0.090011 -3.520976
472 1 131.357173 15.468839 0.000000 0.109951 -3.526692
473 1 133.846546 15.473787 0.000000 0.133185 -3.542864
474 1 136.433489 15.435190 0.000000 0.097350 -3.541494
475 1 138.995538 15.483151 0.000000 0.091531 -3.548740
476 1 141.517900 15.471771 0.000000 0.084648 -3.540884
477 1 144.061810 15.444341 0.000000 0.085185 -3.549879
478 1 146.620259 15.485745 0.000000 0.034359 -3.539749
479 1 149.192672 15.473228 0.000000 0.123668 -3.533977
480 1 151.723354 15.441280 0.000000 0.160780 -3.541858
481 1 0.005922 17.709308 0.000000 0.060712 -3.550194
482 1 2.578707 17.669396 0.000000 0.016141 -3.537277
483 1 5.094074 17.654220 0.000000 0.227509 -3.547826
484 1 7.671250 17.670856 0.000000 0.052092 -3.545389
485 1 10.181057 17.614774 0.000000 0.085475 -3.544441
486 1 12.746372 17.652333 0.000000 0.057641 -3.542577
487 1 15.331240 17.706120 0.000000 0.175489 -3.540323
488 1 17.882469 17.648165 0.000000 0.084841 -3.516804
489 1 20.421002 17.675355 0.000000 0.046416 -3.517593
490 1 22.957841 17.670205 0.000000 0.099831 -3.538330
491 1 25.496765 17.629183 0.000000 0.133333 -3.526815
492 1 28.067186 17.658905 0.000000 0.044408 -3.531957
493 1 30.609603 17.631829 0.000000 0.072889 -3.528806
494 1 33.169324 17.631717 0.000000 0.084472 -3.544508
495 1 35.704994 17.657585 0.000000 0.126530 -3.559197
496 1 38.220246 17.647058 0.000000 0.124447 -3.547985
497 1 40.772521 17.663989 0.000000 0.184416 -3.543078
498 1 43.352359 17.662274 0.000000 0.036583 -3.528603
499 1 45.935356 17.664812 0.000000 0.058692 -3.543696
500 1 48.447218 17.667106 0.000000 -0.019247 -3.528638
501 1 50.991256 17.655617 0.000000 0.078951 -3.549004
502 1 53.552425 17.654469 0.000000 0.101991 -3.550834
503 1 56.080871 17.644530 0.000000 0.024120 -3.549824
504 1 58.654157 17.666453 0.000000 0.109484 -3.547514
505 1 61.196394 17.653861 0.000000 0.098128 -3.544436
506 1 63.726606 17.641225 0.000000 0.108739 -3.541590
507 1 66.302389 17.672554 0.000000 0.047545 -3.541666
508 1 68.847966 17.655366 0.000000 0.123471 -3.534708
509 1 71.409798 17.677354 0.000000 0.027843 -3.541317
510 1 73.923502 17.641743 0.000000 0.068415 -3.543699
511 1 76.496190 17.661721 0.000000 0.185971 -3.556431
512 1 79.082250 17.663676 0.000000 0.112107 -3.528834
513 1 81.600683 17.651221 0.000000 -0.021714 -3.559282
514 1 84.128290 17.674206 0.000000 0.117495 -3.533780
515 1 86.680886 17.669086 0.000000 0.078232 -3.541225
516 1 89.254548 17.652352 0.000000 0.078913 -3.542271
517 1 91.760558 17.663104 0.000000 0.072318 -3.558838
518 1 94.350839 17.625168 0.000000 0.207536 -3.538987
519 1 96.864554 17.666173 0.000000 0.101008 -3.534176
520 1 99.444198 17.675211 0.000000 0.033599 -3.531594
521 1 102.013852 17.656130 0.000000 0.088249 -3.536108
522 1 104.583397 17.654676 0.000000 0.109317 -3.544960
523 1 107.129778 17.653192 0.000000 0.058260 -3.555223
524 1 109.620102 17.678143 0.000000 0.090319 -3.539086
525 1 112.202594 17.659940 0.000000 0.044936 -3.543136
526 1 114.759525 17.663022 0.000000 0.046787 -3.537513
527 1 117.298657 17.659519 0.000000 0.047179 -3.532709
528 1 119.830939 17.654689 0.000000 0.071569 -3.540199
529 1 122.392232 17.655601 0.000000 0.044239 -3.544737
530 1 124.951880 17.690726 0.000000 0.127702 -3.507230
531 1 127.508064 17.676383 0.000000 0.081057 -3.527537
532 1 130.069299 17.677027 0.000000 0.108126 -3.534504
533 1 132.576748 17.681917 0.000000 0.154614 -3.544519
534 1 135.141323 17.623187 0.000000 0.121554 -3.528339
535 1 137.686996 17.680583 0.000000 0.111416 -3.539074
536 1 140.247483 17.634334 0.000000 0.096337 -3.545390
537 1 142.781008 17.710586 0.000000 0.106737 -3.536972
538 1 145.392159 17.644277 0.000000 0.130713 -3.531057
539 1 147.897438 17.665199 0.000000 0.103842 -3.549662
540 1 150.484907 17.653194 0.000000 0.041176 -3.541335
541 1 1.286024 19.889867 0.000000 0.034522 -3.527451
542 1 3.818924 19.859084 0.000000 0.109314 -3.542917
543 1 6.381627 19.850992 0.000000 0.072003 -3.546598
544 1 8.879711 19.853961 0.000000 0.113058 -3.539923
545 1 11.432084 19.915044 0.000000 0.112222 -3.544133
546 1 14.013850 19.873918 0.000000 0.156934 -3.533399
547 1 16.581978 19.907713 0.000000 0.113549 -3.541675
548 1 19.097300 19.886554 0.000000 0.016186 -3.549335
549 1 21.685160 19.879532 0.000000 0.157803 -3.541753
550 1 24.241682 19.900204 0.000000 0.152158 -3.532301
551 1 26.813448 19.872582 0.000000 0.097176 -3.535669
552 1 29.349301 19.898771 0.000000 0.128761 -3.545663
553 1 31.884021 19.896042 0.000000 0.139273 -3.546458
554 1 34.439228 19.884687 0.000000 0.118842 -3.558657
555 1 36.955203 19.893641 0.000000 0.056976 -3.535216
556 1 39.505280 19.889131 0.000000 0.101357 -3.548775