LAMMPS Data File. atom_stye full by Mingda L_C-C=1.418000e+00
11512 atoms
0 bonds
0 angles
0 dihedrals
0 impropers
2 atom types
0 bond types
0 angle types
0 dihedral types
0 improper types
-1.4280 99.2699 xlo xhi
-0.2000 123.1660 ylo yhi
-10.0000 21.0512 zlo zhi

 Masses 

1 12.010700
2 12.010700

 Atoms # full

1 1 1 0.0000 0.0000 0.0000 0.0000
2 1 1 0.0000 -1.2280 0.7090 0.0000
3 1 1 0.0000 -1.2280 2.1270 0.0000
4 1 1 0.0000 0.0000 2.8360 0.0000
5 1 1 0.0000 2.4560 0.0000 0.0000
6 1 1 0.0000 1.2280 0.7090 0.0000
7 1 1 0.0000 1.2280 2.1270 0.0000
8 1 1 0.0000 2.4560 2.8360 0.0000
9 1 1 0.0000 4.9121 0.0000 0.0000
10 1 1 0.0000 3.6841 0.7090 0.0000
11 1 1 0.0000 3.6841 2.1270 0.0000
12 1 1 0.0000 4.9121 2.8360 0.0000
13 1 1 0.0000 7.3681 0.0000 0.0000
14 1 1 0.0000 6.1401 0.7090 0.0000
15 1 1 0.0000 6.1401 2.1270 0.0000
16 1 1 0.0000 7.3681 2.8360 0.0000
17 1 1 0.0000 9.8242 0.0000 0.0000
18 1 1 0.0000 8.5962 0.7090 0.0000
19 1 1 0.0000 8.5962 2.1270 0.0000
20 1 1 0.0000 9.8242 2.8360 0.0000
21 1 1 0.0000 12.2802 0.0000 0.0000
22 1 1 0.0000 11.0522 0.7090 0.0000
23 1 1 0.0000 11.0522 2.1270 0.0000
24 1 1 0.0000 12.2802 2.8360 0.0000
25 1 1 0.0000 14.7363 0.0000 0.0000
26 1 1 0.0000 13.5083 0.7090 0.0000
27 1 1 0.0000 13.5083 2.1270 0.0000
28 1 1 0.0000 14.7363 2.8360 0.0000
29 1 1 0.0000 17.1923 0.0000 0.0000
30 1 1 0.0000 15.9643 0.7090 0.0000
31 1 1 0.0000 15.9643 2.1270 0.0000
32 1 1 0.0000 17.1923 2.8360 0.0000
33 1 1 0.0000 19.6484 0.0000 0.0000
34 1 1 0.0000 18.4204 0.7090 0.0000
35 1 1 0.0000 18.4204 2.1270 0.0000
36 1 1 0.0000 19.6484 2.8360 0.0000
37 1 1 0.0000 22.1044 0.0000 0.0000
38 1 1 0.0000 20.8764 0.7090 0.0000
39 1 1 0.0000 20.8764 2.1270 0.0000
40 1 1 0.0000 22.1044 2.8360 0.0000
41 1 1 0.0000 24.5605 0.0000 0.0000
42 1 1 0.0000 23.3325 0.7090 0.0000
43 1 1 0.0000 23.3325 2.1270 0.0000
44 1 1 0.0000 24.5605 2.8360 0.0000
45 1 1 0.0000 27.0165 0.0000 0.0000
46 1 1 0.0000 25.7885 0.7090 0.0000
47 1 1 0.0000 25.7885 2.1270 0.0000
48 1 1 0.0000 27.0165 2.8360 0.0000
49 1 1 0.0000 29.4726 0.0000 0.0000
50 1 1 0.0000 28.2446 0.7090 0.0000
51 1 1 0.0000 28.2446 2.1270 0.0000
52 1 1 0.0000 29.4726 2.8360 0.0000
53 1 1 0.0000 31.9286 0.0000 0.0000
54 1 1 0.0000 30.7006 0.7090 0.0000
55 1 1 0.0000 30.7006 2.1270 0.0000
56 1 1 0.0000 31.9286 2.8360 0.0000
57 1 1 0.0000 34.3847 0.0000 0.0000
58 1 1 0.0000 33.1566 0.7090 0.0000
59 1 1 0.0000 33.1566 2.1270 0.0000
60 1 1 0.0000 34.3847 2.8360 0.0000
61 1 1 0.0000 36.8407 0.0000 0.0000
62 1 1 0.0000 35.6127 0.7090 0.0000
63 1 1 0.0000 35.6127 2.1270 0.0000
64 1 1 0.0000 36.8407 2.8360 0.0000
65 1 1 0.0000 39.2968 0.0000 0.0000
66 1 1 0.0000 38.0687 0.7090 0.0000
67 1 1 0.0000 38.0687 2.1270 0.0000
68 1 1 0.0000 39.2968 2.8360 0.0000
69 1 1 0.0000 41.7528 0.0000 0.0000
70 1 1 0.0000 40.5248 0.7090 0.0000
71 1 1 0.0000 40.5248 2.1270 0.0000
72 1 1 0.0000 41.7528 2.8360 0.0000
73 1 1 0.0000 44.2089 0.0000 0.0000
74 1 1 0.0000 42.9808 0.7090 0.0000
75 1 1 0.0000 42.9808 2.1270 0.0000
76 1 1 0.0000 44.2089 2.8360 0.0000
77 1 1 0.0000 46.6649 0.0000 0.0000
78 1 1 0.0000 45.4369 0.7090 0.0000
79 1 1 0.0000 45.4369 2.1270 0.0000
80 1 1 0.0000 46.6649 2.8360 0.0000
81 1 1 0.0000 49.1210 0.0000 0.0000
82 1 1 0.0000 47.8929 0.7090 0.0000
83 1 1 0.0000 47.8929 2.1270 0.0000
84 1 1 0.0000 49.1210 2.8360 0.0000
85 1 1 0.0000 51.5770 0.0000 0.0000
86 1 1 0.0000 50.3490 0.7090 0.0000
87 1 1 0.0000 50.3490 2.1270 0.0000
88 1 1 0.0000 51.5770 2.8360 0.0000
89 1 1 0.0000 54.0331 0.0000 0.0000
90 1 1 0.0000 52.8050 0.7090 0.0000
91 1 1 0.0000 52.8050 2.1270 0.0000
92 1 1 0.0000 54.0331 2.8360 0.0000
93 1 1 0.0000 56.4891 0.0000 0.0000
94 1 1 0.0000 55.2611 0.7090 0.0000
95 1 1 0.0000 55.2611 2.1270 0.0000
96 1 1 0.0000 56.4891 2.8360 0.0000
97 1 1 0.0000 58.9452 0.0000 0.0000
98 1 1 0.0000 57.7171 0.7090 0.0000
99 1 1 0.0000 57.7171 2.1270 0.0000
100 1 1 0.0000 58.9452 2.8360 0.0000
101 1 1 0.0000 61.4012 0.0000 0.0000
102 1 1 0.0000 60.1732 0.7090 0.0000
103 1 1 0.0000 60.1732 2.1270 0.0000
104 1 1 0.0000 61.4012 2.8360 0.0000
105 1 1 0.0000 63.8573 0.0000 0.0000
106 1 1 0.0000 62.6292 0.7090 0.0000
107 1 1 0.0000 62.6292 2.1270 0.0000
108 1 1 0.0000 63.8573 2.8360 0.0000
109 1 1 0.0000 66.3133 0.0000 0.0000
110 1 1 0.0000 65.0853 0.7090 0.0000
111 1 1 0.0000 65.0853 2.1270 0.0000
112 1 1 0.0000 66.3133 2.8360 0.0000
113 1 1 0.0000 68.7693 0.0000 0.0000
114 1 1 0.0000 67.5413 0.7090 0.0000
115 1 1 0.0000 67.5413 2.1270 0.0000
116 1 1 0.0000 68.7693 2.8360 0.0000
117 1 1 0.0000 71.2254 0.0000 0.0000
118 1 1 0.0000 69.9974 0.7090 0.0000
119 1 1 0.0000 69.9974 2.1270 0.0000
120 1 1 0.0000 71.2254 2.8360 0.0000
121 1 1 0.0000 73.6814 0.0000 0.0000
122 1 1 0.0000 72.4534 0.7090 0.0000
123 1 1 0.0000 72.4534 2.1270 0.0000
124 1 1 0.0000 73.6814 2.8360 0.0000
125 1 1 0.0000 76.1375 0.0000 0.0000
126 1 1 0.0000 74.9095 0.7090 0.0000
127 1 1 0.0000 74.9095 2.1270 0.0000
128 1 1 0.0000 76.1375 2.8360 0.0000
129 1 1 0.0000 78.5935 0.0000 0.0000
130 1 1 0.0000 77.3655 0.7090 0.0000
131 1 1 0.0000 77.3655 2.1270 0.0000
132 1 1 0.0000 78.5935 2.8360 0.0000
133 1 1 0.0000 81.0496 0.0000 0.0000
134 1 1 0.0000 79.8216 0.7090 0.0000
135 1 1 0.0000 79.8216 2.1270 0.0000
136 1 1 0.0000 81.0496 2.8360 0.0000
137 1 1 0.0000 83.5056 0.0000 0.0000
138 1 1 0.0000 82.2776 0.7090 0.0000
139 1 1 0.0000 82.2776 2.1270 0.0000
140 1 1 0.0000 83.5056 2.8360 0.0000
141 1 1 0.0000 85.9617 0.0000 0.0000
142 1 1 0.0000 84.7337 0.7090 0.0000
143 1 1 0.0000 84.7337 2.1270 0.0000
144 1 1 0.0000 85.9617 2.8360 0.0000
145 1 1 0.0000 88.4177 0.0000 0.0000
146 1 1 0.0000 87.1897 0.7090 0.0000
147 1 1 0.0000 87.1897 2.1270 0.0000
148 1 1 0.0000 88.4177 2.8360 0.0000
149 1 1 0.0000 90.8738 0.0000 0.0000
150 1 1 0.0000 89.6458 0.7090 0.0000
151 1 1 0.0000 89.6458 2.1270 0.0000
152 1 1 0.0000 90.8738 2.8360 0.0000
153 1 1 0.0000 93.3298 0.0000 0.0000
154 1 1 0.0000 92.1018 0.7090 0.0000
155 1 1 0.0000 92.1018 2.1270 0.0000
156 1 1 0.0000 93.3298 2.8360 0.0000
157 1 1 0.0000 95.7859 0.0000 0.0000
158 1 1 0.0000 94.5578 0.7090 0.0000
159 1 1 0.0000 94.5578 2.1270 0.0000
160 1 1 0.0000 95.7859 2.8360 0.0000
161 1 1 0.0000 98.2419 0.0000 0.0000
162 1 1 0.0000 97.0139 0.7090 0.0000
163 1 1 0.0000 97.0139 2.1270 0.0000
164 1 1 0.0000 98.2419 2.8360 0.0000
165 1 1 0.0000 0.0000 4.2540 0.0000
166 1 1 0.0000 -1.2280 4.9630 0.0000
167 1 1 0.0000 -1.2280 6.3810 0.0000
168 1 1 0.0000 0.0000 7.0900 0.0000
169 1 1 0.0000 2.4560 4.2540 0.0000
170 1 1 0.0000 1.2280 4.9630 0.0000
171 1 1 0.0000 1.2280 6.3810 0.0000
172 1 1 0.0000 2.4560 7.0900 0.0000
173 1 1 0.0000 4.9121 4.2540 0.0000
174 1 1 0.0000 3.6841 4.9630 0.0000
175 1 1 0.0000 3.6841 6.3810 0.0000
176 1 1 0.0000 4.9121 7.0900 0.0000
177 1 1 0.0000 7.3681 4.2540 0.0000
178 1 1 0.0000 6.1401 4.9630 0.0000
179 1 1 0.0000 6.1401 6.3810 0.0000
180 1 1 0.0000 7.3681 7.0900 0.0000
181 1 1 0.0000 9.8242 4.2540 0.0000
182 1 1 0.0000 8.5962 4.9630 0.0000
183 1 1 0.0000 8.5962 6.3810 0.0000
184 1 1 0.0000 9.8242 7.0900 0.0000
185 1 1 0.0000 12.2802 4.2540 0.0000
186 1 1 0.0000 11.0522 4.9630 0.0000
187 1 1 0.0000 11.0522 6.3810 0.0000
188 1 1 0.0000 12.2802 7.0900 0.0000
189 1 1 0.0000 14.7363 4.2540 0.0000
190 1 1 0.0000 13.5083 4.9630 0.0000
191 1 1 0.0000 13.5083 6.3810 0.0000
192 1 1 0.0000 14.7363 7.0900 0.0000
193 1 1 0.0000 17.1923 4.2540 0.0000
194 1 1 0.0000 15.9643 4.9630 0.0000
195 1 1 0.0000 15.9643 6.3810 0.0000
196 1 1 0.0000 17.1923 7.0900 0.0000
197 1 1 0.0000 19.6484 4.2540 0.0000
198 1 1 0.0000 18.4204 4.9630 0.0000
199 1 1 0.0000 18.4204 6.3810 0.0000
200 1 1 0.0000 19.6484 7.0900 0.0000
201 1 1 0.0000 22.1044 4.2540 0.0000
202 1 1 0.0000 20.8764 4.9630 0.0000
203 1 1 0.0000 20.8764 6.3810 0.0000
204 1 1 0.0000 22.1044 7.0900 0.0000
205 1 1 0.0000 24.5605 4.2540 0.0000
206 1 1 0.0000 23.3325 4.9630 0.0000
207 1 1 0.0000 23.3325 6.3810 0.0000
208 1 1 0.0000 24.5605 7.0900 0.0000
209 1 1 0.0000 27.0165 4.2540 0.0000
210 1 1 0.0000 25.7885 4.9630 0.0000
211 1 1 0.0000 25.7885 6.3810 0.0000
212 1 1 0.0000 27.0165 7.0900 0.0000
213 1 1 0.0000 29.4726 4.2540 0.0000
214 1 1 0.0000 28.2446 4.9630 0.0000
215 1 1 0.0000 28.2446 6.3810 0.0000
216 1 1 0.0000 29.4726 7.0900 0.0000
217 1 1 0.0000 31.9286 4.2540 0.0000
218 1 1 0.0000 30.7006 4.9630 0.0000
219 1 1 0.0000 30.7006 6.3810 0.0000
220 1 1 0.0000 31.9286 7.0900 0.0000
221 1 1 0.0000 34.3847 4.2540 0.0000
222 1 1 0.0000 33.1566 4.9630 0.0000
223 1 1 0.0000 33.1566 6.3810 0.0000
224 1 1 0.0000 34.3847 7.0900 0.0000
225 1 1 0.0000 36.8407 4.2540 0.0000
226 1 1 0.0000 35.6127 4.9630 0.0000
227 1 1 0.0000 35.6127 6.3810 0.0000
228 1 1 0.0000 36.8407 7.0900 0.0000
229 1 1 0.0000 39.2968 4.2540 0.0000
230 1 1 0.0000 38.0687 4.9630 0.0000
231 1 1 0.0000 38.0687 6.3810 0.0000
232 1 1 0.0000 39.2968 7.0900 0.0000
233 1 1 0.0000 41.7528 4.2540 0.0000
234 1 1 0.0000 40.5248 4.9630 0.0000
235 1 1 0.0000 40.5248 6.3810 0.0000
236 1 1 0.0000 41.7528 7.0900 0.0000
237 1 1 0.0000 44.2089 4.2540 0.0000
238 1 1 0.0000 42.9808 4.9630 0.0000
239 1 1 0.0000 42.9808 6.3810 0.0000
240 1 1 0.0000 44.2089 7.0900 0.0000
241 1 1 0.0000 46.6649 4.2540 0.0000
242 1 1 0.0000 45.4369 4.9630 0.0000
243 1 1 0.0000 45.4369 6.3810 0.0000
244 1 1 0.0000 46.6649 7.0900 0.0000
245 1 1 0.0000 49.1210 4.2540 0.0000
246 1 1 0.0000 47.8929 4.9630 0.0000
247 1 1 0.0000 47.8929 6.3810 0.0000
248 1 1 0.0000 49.1210 7.0900 0.0000
249 1 1 0.0000 51.5770 4.2540 0.0000
250 1 1 0.0000 50.3490 4.9630 0.0000
251 1 1 0.0000 50.3490 6.3810 0.0000
252 1 1 0.0000 51.5770 7.0900 0.0000
253 1 1 0.0000 54.0331 4.2540 0.0000
254 1 1 0.0000 52.8050 4.9630 0.0000
255 1 1 0.0000 52.8050 6.3810 0.0000
256 1 1 0.0000 54.0331 7.0900 0.0000
257 1 1 0.0000 56.4891 4.2540 0.0000
258 1 1 0.0000 55.2611 4.9630 0.0000
259 1 1 0.0000 55.2611 6.3810 0.0000
260 1 1 0.0000 56.4891 7.0900 0.0000
261 1 1 0.0000 58.9452 4.2540 0.0000
262 1 1 0.0000 57.7171 4.9630 0.0000
263 1 1 0.0000 57.7171 6.3810 0.0000
264 1 1 0.0000 58.9452 7.0900 0.0000
265 1 1 0.0000 61.4012 4.2540 0.0000
266 1 1 0.0000 60.1732 4.9630 0.0000
267 1 1 0.0000 60.1732 6.3810 0.0000
268 1 1 0.0000 61.4012 7.0900 0.0000
269 1 1 0.0000 63.8573 4.2540 0.0000
270 1 1 0.0000 62.6292 4.9630 0.0000
271 1 1 0.0000 62.6292 6.3810 0.0000
272 1 1 0.0000 63.8573 7.0900 0.0000
273 1 1 0.0000 66.3133 4.2540 0.0000
274 1 1 0.0000 65.0853 4.9630 0.0000
275 1 1 0.0000 65.0853 6.3810 0.0000
276 1 1 0.0000 66.3133 7.0900 0.0000
277 1 1 0.0000 68.7693 4.2540 0.0000
278 1 1 0.0000 67.5413 4.9630 0.0000
279 1 1 0.0000 67.5413 6.3810 0.0000
280 1 1 0.0000 68.7693 7.0900 0.0000
281 1 1 0.0000 71.2254 4.2540 0.0000
282 1 1 0.0000 69.9974 4.9630 0.0000
283 1 1 0.0000 69.9974 6.3810 0.0000
284 1 1 0.0000 71.2254 7.0900 0.0000
285 1 1 0.0000 73.6814 4.2540 0.0000
286 1 1 0.0000 72.4534 4.9630 0.0000
287 1 1 0.0000 72.4534 6.3810 0.0000
288 1 1 0.0000 73.6814 7.0900 0.0000
289 1 1 0.0000 76.1375 4.2540 0.0000
290 1 1 0.0000 74.9095 4.9630 0.0000
291 1 1 0.0000 74.9095 6.3810 0.0000
292 1 1 0.0000 76.1375 7.0900 0.0000
293 1 1 0.0000 78.5935 4.2540 0.0000
294 1 1 0.0000 77.3655 4.9630 0.0000
295 1 1 0.0000 77.3655 6.3810 0.0000
296 1 1 0.0000 78.5935 7.0900 0.0000
297 1 1 0.0000 81.0496 4.2540 0.0000
298 1 1 0.0000 79.8216 4.9630 0.0000
299 1 1 0.0000 79.8216 6.3810 0.0000
300 1 1 0.0000 81.0496 7.0900 0.0000
301 1 1 0.0000 83.5056 4.2540 0.0000
302 1 1 0.0000 82.2776 4.9630 0.0000
303 1 1 0.0000 82.2776 6.3810 0.0000
304 1 1 0.0000 83.5056 7.0900 0.0000
305 1 1 0.0000 85.9617 4.2540 0.0000
306 1 1 0.0000 84.7337 4.9630 0.0000
307 1 1 0.0000 84.7337 6.3810 0.0000
308 1 1 0.0000 85.9617 7.0900 0.0000
309 1 1 0.0000 88.4177 4.2540 0.0000
310 1 1 0.0000 87.1897 4.9630 0.0000
311 1 1 0.0000 87.1897 6.3810 0.0000
312 1 1 0.0000 88.4177 7.0900 0.0000
313 1 1 0.0000 90.8738 4.2540 0.0000
314 1 1 0.0000 89.6458 4.9630 0.0000
315 1 1 0.0000 89.6458 6.3810 0.0000
316 1 1 0.0000 90.8738 7.0900 0.0000
317 1 1 0.0000 93.3298 4.2540 0.0000
318 1 1 0.0000 92.1018 4.9630 0.0000
319 1 1 0.0000 92.1018 6.3810 0.0000
320 1 1 0.0000 93.3298 7.0900 0.0000
321 1 1 0.0000 95.7859 4.2540 0.0000
322 1 1 0.0000 94.5578 4.9630 0.0000
323 1 1 0.0000 94.5578 6.3810 0.0000
324 1 1 0.0000 95.7859 7.0900 0.0000
325 1 1 0.0000 98.2419 4.2540 0.0000
326 1 1 0.0000 97.0139 4.9630 0.0000
327 1 1 0.0000 97.0139 6.3810 0.0000
328 1 1 0.0000 98.2419 7.0900 0.0000
329 1 1 0.0000 0.0000 8.5080 0.0000
330 1 1 0.0000 -1.2280 9.2170 0.0000
331 1 1 0.0000 -1.2280 10.6350 0.0000
332 1 1 0.0000 0.0000 11.3440 0.0000
333 1 1 0.0000 2.4560 8.5080 0.0000
334 1 1 0.0000 1.2280 9.2170 0.0000
335 1 1 0.0000 1.2280 10.6350 0.0000
336 1 1 0.0000 2.4560 11.3440 0.0000
337 1 1 0.0000 4.9121 8.5080 0.0000
338 1 1 0.0000 3.6841 9.2170 0.0000
339 1 1 0.0000 3.6841 10.6350 0.0000
340 1 1 0.0000 4.9121 11.3440 0.0000
341 1 1 0.0000 7.3681 8.5080 0.0000
342 1 1 0.0000 6.1401 9.2170 0.0000
343 1 1 0.0000 6.1401 10.6350 0.0000
344 1 1 0.0000 7.3681 11.3440 0.0000
345 1 1 0.0000 9.8242 8.5080 0.0000
346 1 1 0.0000 8.5962 9.2170 0.0000
347 1 1 0.0000 8.5962 10.6350 0.0000
348 1 1 0.0000 9.8242 11.3440 0.0000
349 1 1 0.0000 12.2802 8.5080 0.0000
350 1 1 0.0000 11.0522 9.2170 0.0000
351 1 1 0.0000 11.0522 10.6350 0.0000
352 1 1 0.0000 12.2802 11.3440 0.0000
353 1 1 0.0000 14.7363 8.5080 0.0000
354 1 1 0.0000 13.5083 9.2170 0.0000
355 1 1 0.0000 13.5083 10.6350 0.0000
356 1 1 0.0000 14.7363 11.3440 0.0000
357 1 1 0.0000 17.1923 8.5080 0.0000
358 1 1 0.0000 15.9643 9.2170 0.0000
359 1 1 0.0000 15.9643 10.6350 0.0000
360 1 1 0.0000 17.1923 11.3440 0.0000
361 1 1 0.0000 19.6484 8.5080 0.0000
362 1 1 0.0000 18.4204 9.2170 0.0000
363 1 1 0.0000 18.4204 10.6350 0.0000
364 1 1 0.0000 19.6484 11.3440 0.0000
365 1 1 0.0000 22.1044 8.5080 0.0000
366 1 1 0.0000 20.8764 9.2170 0.0000
367 1 1 0.0000 20.8764 10.6350 0.0000
368 1 1 0.0000 22.1044 11.3440 0.0000
369 1 1 0.0000 24.5605 8.5080 0.0000
370 1 1 0.0000 23.3325 9.2170 0.0000
371 1 1 0.0000 23.3325 10.6350 0.0000
372 1 1 0.0000 24.5605 11.3440 0.0000
373 1 1 0.0000 27.0165 8.5080 0.0000
374 1 1 0.0000 25.7885 9.2170 0.0000
375 1 1 0.0000 25.7885 10.6350 0.0000
376 1 1 0.0000 27.0165 11.3440 0.0000
377 1 1 0.0000 29.4726 8.5080 0.0000
378 1 1 0.0000 28.2446 9.2170 0.0000
379 1 1 0.0000 28.2446 10.6350 0.0000
380 1 1 0.0000 29.4726 11.3440 0.0000
381 1 1 0.0000 31.9286 8.5080 0.0000
382 1 1 0.0000 30.7006 9.2170 0.0000
383 1 1 0.0000 30.7006 10.6350 0.0000
384 1 1 0.0000 31.9286 11.3440 0.0000
385 1 1 0.0000 34.3847 8.5080 0.0000
386 1 1 0.0000 33.1566 9.2170 0.0000
387 1 1 0.0000 33.1566 10.6350 0.0000
388 1 1 0.0000 34.3847 11.3440 0.0000
389 1 1 0.0000 36.8407 8.5080 0.0000
390 1 1 0.0000 35.6127 9.2170 0.0000
391 1 1 0.0000 35.6127 10.6350 0.0000
392 1 1 0.0000 36.8407 11.3440 0.0000
393 1 1 0.0000 39.2968 8.5080 0.0000
394 1 1 0.0000 38.0687 9.2170 0.0000
395 1 1 0.0000 38.0687 10.6350 0.0000
396 1 1 0.0000 39.2968 11.3440 0.0000
397 1 1 0.0000 41.7528 8.5080 0.0000
398 1 1 0.0000 40.5248 9.2170 0.0000
399 1 1 0.0000 40.5248 10.6350 0.0000
400 1 1 0.0000 41.7528 11.3440 0.0000
401 1 1 0.0000 44.2089 8.5080 0.0000
402 1 1 0.0000 42.9808 9.2170 0.0000
403 1 1 0.0000 42.9808 10.6350 0.0000
404 1 1 0.0000 44.2089 11.3440 0.0000
405 1 1 0.0000 46.6649 8.5080 0.0000
406 1 1 0.0000 45.4369 9.2170 0.0000
407 1 1 0.0000 45.4369 10.6350 0.0000
408 1 1 0.0000 46.6649 11.3440 0.0000
409 1 1 0.0000 49.1210 8.5080 0.0000
410 1 1 0.0000 47.8929 9.2170 0.0000
411 1 1 0.0000 47.8929 10.6350 0.0000
412 1 1 0.0000 49.1210 11.3440 0.0000
413 1 1 0.0000 51.5770 8.5080 0.0000
414 1 1 0.0000 50.3490 9.2170 0.0000
415 1 1 0.0000 50.3490 10.6350 0.0000
416 1 1 0.0000 51.5770 11.3440 0.0000
417 1 1 0.0000 54.0331 8.5080 0.0000
418 1 1 0.0000 52.8050 9.2170 0.0000
419 1 1 0.0000 52.8050 10.6350 0.0000
420 1 1 0.0000 54.0331 11.3440 0.0000
421 1 1 0.0000 56.4891 8.5080 0.0000
422 1 1 0.0000 55.2611 9.2170 0.0000
423 1 1 0.0000 55.2611 10.6350 0.0000
424 1 1 0.0000 56.4891 11.3440 0.0000
425 1 1 0.0000 58.9452 8.5080 0.0000
426 1 1 0.0000 57.7171 9.2170 0.0000
427 1 1 0.0000 57.7171 10.6350 0.0000
428 1 1 0.0000 58.9452 11.3440 0.0000
429 1 1 0.0000 61.4012 8.5080 0.0000
430 1 1 0.0000 60.1732 9.2170 0.0000
431 1 1 0.0000 60.1732 10.6350 0.0000
432 1 1 0.0000 61.4012 11.3440 0.0000
433 1 1 0.0000 63.8573 8.5080 0.0000
434 1 1 0.0000 62.6292 9.2170 0.0000
435 1 1 0.0000 62.6292 10.6350 0.0000
436 1 1 0.0000 63.8573 11.3440 0.0000
437 1 1 0.0000 66.3133 8.5080 0.0000
438 1 1 0.0000 65.0853 9.2170 0.0000
439 1 1 0.0000 65.0853 10.6350 0.0000
440 1 1 0.0000 66.3133 11.3440 0.0000
441 1 1 0.0000 68.7693 8.5080 0.0000
442 1 1 0.0000 67.5413 9.2170 0.0000
443 1 1 0.0000 67.5413 10.6350 0.0000
444 1 1 0.0000 68.7693 11.3440 0.0000
445 1 1 0.0000 71.2254 8.5080 0.0000
446 1 1 0.0000 69.9974 9.2170 0.0000
447 1 1 0.0000 69.9974 10.6350 0.0000
448 1 1 0.0000 71.2254 11.3440 0.0000
449 1 1 0.0000 73.6814 8.5080 0.0000
450 1 1 0.0000 72.4534 9.2170 0.0000
451 1 1 0.0000 72.4534 10.6350 0.0000
452 1 1 0.0000 73.6814 11.3440 0.0000
453 1 1 0.0000 76.1375 8.5080 0.0000
454 1 1 0.0000 74.9095 9.2170 0.0000
455 1 1 0.0000 74.9095 10.6350 0.0000
456 1 1 0.0000 76.1375 11.3440 0.0000
457 1 1 0.0000 78.5935 8.5080 0.0000
458 1 1 0.0000 77.3655 9.2170 0.0000
459 1 1 0.0000 77.3655 10.6350 0.0000
460 1 1 0.0000 78.5935 11.3440 0.0000
461 1 1 0.0000 81.0496 8.5080 0.0000
462 1 1 0.0000 79.8216 9.2170 0.0000
463 1 1 0.0000 79.8216 10.6350 0.0000
464 1 1 0.0000 81.0496 11.3440 0.0000
465 1 1 0.0000 83.5056 8.5080 0.0000
466 1 1 0.0000 82.2776 9.2170 0.0000
467 1 1 0.0000 82.2776 10.6350 0.0000
468 1 1 0.0000 83.5056 11.3440 0.0000
469 1 1 0.0000 85.9617 8.5080 0.0000
470 1 1 0.0000 84.7337 9.2170 0.0000
471 1 1 0.0000 84.7337 10.6350 0.0000
472 1 1 0.0000 85.9617 11.3440 0.0000
473 1 1 0.0000 88.4177 8.5080 0.0000
474 1 1 0.0000 87.1897 9.2170 0.0000
475 1 1 0.0000 87.1897 10.6350 0.0000
476 1 1 0.0000 88.4177 11.3440 0.0000
477 1 1 0.0000 90.8738 8.5080 0.0000
478 1 1 0.0000 89.6458 9.2170 0.0000
479 1 1 0.0000 89.6458 10.6350 0.0000
480 1 1 0.0000 90.8738 11.3440 0.0000
481 1 1 0.0000 93.3298 8.5080 0.0000
482 1 1 0.0000 92.1018 9.2170 0.0000
483 1 1 0.0000 92.1018 10.6350 0.0000
484 1 1 0.0000 93.3298 11.3440 0.0000
485 1 1 0.0000 95.7859 8.5080 0.0000
486 1 1 0.0000 94.5578 9.2170 0.0000
487 1 1 0.0000 94.5578 10.6350 0.0000
488 1 1 0.0000 95.7859 11.3440 0.0000
489 1 1 0.0000 98.2419 8.5080 0.0000
490 1 1 0.0000 97.0139 9.2170 0.0000
491 1 1 0.0000 97.0139 10.6350 0.0000
492 1 1 0.0000 98.2419 11.3440 0.0000
493 1 1 0.0000 0.0000 12.7620 0.0000
494 1 1 0.0000 -1.2280 13.4710 0.0000
495 1 1 0.0000 -1.2280 14.8890 0.0000
496 1 1 0.0000 0.0000 15.5980 0.0000
497 1 1 0.0000 2.4560 12.7620 0.0000
498 1 1 0.0000 1.2280 13.4710 0.0000
499 1 1 0.0000 1.2280 14.8890 0.0000
500 1 1 0.0000 2.4560 15.5980 0.0000
501 1 1 0.0000 4.9121 12.7620 0.0000
502 1 1 0.0000 3.6841 13.4710 0.0000
503 1 1 0.0000 3.6841 14.8890 0.0000
504 1 1 0.0000 4.9121 15.5980 0.0000
505 1 1 0.0000 7.3681 12.7620 0.0000
506 1 1 0.0000 6.1401 13.4710 0.0000
507 1 1 0.0000 6.1401 14.8890 0.0000
508 1 1 0.0000 7.3681 15.5980 0.0000
509 1 1 0.0000 9.8242 12.7620 0.0000
510 1 1 0.0000 8.5962 13.4710 0.0000
511 1 1 0.0000 8.5962 14.8890 0.0000
512 1 1 0.0000 9.8242 15.5980 0.0000
513 1 1 0.0000 12.2802 12.7620 0.0000
514 1 1 0.0000 11.0522 13.4710 0.0000
515 1 1 0.0000 11.0522 14.8890 0.0000
516 1 1 0.0000 12.2802 15.5980 0.0000
517 1 1 0.0000 14.7363 12.7620 0.0000
518 1 1 0.0000 13.5083 13.4710 0.0000
519 1 1 0.0000 13.5083 14.8890 0.0000
520 1 1 0.0000 14.7363 15.5980 0.0000
521 1 1 0.0000 17.1923 12.7620 0.0000
522 1 1 0.0000 15.9643 13.4710 0.0000
523 1 1 0.0000 15.9643 14.8890 0.0000
524 1 1 0.0000 17.1923 15.5980 0.0000
525 1 1 0.0000 19.6484 12.7620 0.0000
526 1 1 0.0000 18.4204 13.4710 0.0000
527 1 1 0.0000 18.4204 14.8890 0.0000
528 1 1 0.0000 19.6484 15.5980 0.0000
529 1 1 0.0000 22.1044 12.7620 0.0000
530 1 1 0.0000 20.8764 13.4710 0.0000
531 1 1 0.0000 20.8764 14.8890 0.0000
532 1 1 0.0000 22.1044 15.5980 0.0000
533 1 1 0.0000 24.5605 12.7620 0.0000
534 1 1 0.0000 23.3325 13.4710 0.0000
535 1 1 0.0000 23.3325 14.8890 0.0000
536 1 1 0.0000 24.5605 15.5980 0.0000
537 1 1 0.0000 27.0165 12.7620 0.0000
538 1 1 0.0000 25.7885 13.4710 0.0000
539 1 1 0.0000 25.7885 14.8890 0.0000
540 1 1 0.0000 27.0165 15.5980 0.0000
541 1 1 0.0000 29.4726 12.7620 0.0000
542 1 1 0.0000 28.2446 13.4710 0.0000
543 1 1 0.0000 28.2446 14.8890 0.0000
544 1 1 0.0000 29.4726 15.5980 0.0000
545 1 1 0.0000 31.9286 12.7620 0.0000
546 1 1 0.0000 30.7006 13.4710 0.0000
547 1 1 0.0000 30.7006 14.8890 0.0000
548 1 1 0.0000 31.9286 15.5980 0.0000
549 1 1 0.0000 34.3847 12.7620 0.0000
550 1 1 0.0000 33.1566 13.4710 0.0000
551 1 1 0.0000 33.1566 14.8890 0.0000
552 1 1 0.0000 34.3847 15.5980 0.0000
553 1 1 0.0000 36.8407 12.7620 0.0000
554 1 1 0.0000 35.6127 13.4710 0.0000
555 1 1 0.0000 35.6127 14.8890 0.0000
556 1 1 0.0000 36.8407 15.5980 0.0000
557 1 1 0.0000 39.2968 12.7620 0.0000
558 1 1 0.0000 38.0687 13.4710 0.0000
559 1 1 0.0000 38.0687 14.8890 0.0000
560 1 1 0.0000 39.2968 15.5980 0.0000
561 1 1 0.0000 41.7528 12.7620 0.0000
562 1 1 0.0000 40.5248 13.4710 0.0000
563 1 1 0.0000 40.5248 14.8890 0.0000
564 1 1 0.0000 41.7528 15.5980 0.0000
565 1 1 0.0000 44.2089 12.7620 0.0000
566 1 1 0.0000 42.9808 13.4710 0.0000
567 1 1 0.0000 42.9808 14.8890 0.0000
568 1 1 0.0000 44.2089 15.5980 0.0000
569 1 1 0.0000 46.6649 12.7620 0.0000
570 1 1 0.0000 45.4369 13.4710 0.0000
571 1 1 0.0000 45.4369 14.8890 0.0000
572 1 1 0.0000 46.6649 15.5980 0.0000
573 1 1 0.0000 49.1210 12.7620 0.0000
574 1 1 0.0000 47.8929 13.4710 0.0000
575 1 1 0.0000 47.8929 14.8890 0.0000
576 1 1 0.0000 49.1210 15.5980 0.0000
577 1 1 0.0000 51.5770 12.7620 0.0000
578 1 1 0.0000 50.3490 13.4710 0.0000
579 1 1 0.0000 50.3490 14.8890 0.0000
580 1 1 0.0000 51.5770 15.5980 0.0000
581 1 1 0.0000 54.0331 12.7620 0.0000
582 1 1 0.0000 52.8050 13.4710 0.0000
583 1 1 0.0000 52.8050 14.8890 0.0000
584 1 1 0.0000 54.0331 15.5980 0.0000
585 1 1 0.0000 56.4891 12.7620 0.0000
586 1 1 0.0000 55.2611 13.4710 0.0000
587 1 1 0.0000 55.2611 14.8890 0.0000
588 1 1 0.0000 56.4891 15.5980 0.0000
589 1 1 0.0000 58.9452 12.7620 0.0000
590 1 1 0.0000 57.7171 13.4710 0.0000
591 1 1 0.0000 57.7171 14.8890 0.0000
592 1 1 0.0000 58.9452 15.5980 0.0000
593 1 1 0.0000 61.4012 12.7620 0.0000
594 1 1 0.0000 60.1732 13.4710 0.0000
595 1 1 0.0000 60.1732 14.8890 0.0000
596 1 1 0.0000 61.4012 15.5980 0.0000
597 1 1 0.0000 63.8573 12.7620 0.0000
598 1 1 0.0000 62.6292 13.4710 0.0000
599 1 1 0.0000 62.6292 14.8890 0.0000
600 1 1 0.0000 63.8573 15.5980 0.0000
601 1 1 0.0000 66.3133 12.7620 0.0000
602 1 1 0.0000 65.0853 13.4710 0.0000
603 1 1 0.0000 65.0853 14.8890 0.0000
604 1 1 0.0000 66.3133 15.5980 0.0000
605 1 1 0.0000 68.7693 12.7620 0.0000
606 1 1 0.0000 67.5413 13.4710 0.0000
607 1 1 0.0000 67.5413 14.8890 0.0000
608 1 1 0.0000 68.7693 15.5980 0.0000
609 1 1 0.0000 71.2254 12.7620 0.0000
610 1 1 0.0000 69.9974 13.4710 0.0000
611 1 1 0.0000 69.9974 14.8890 0.0000
612 1 1 0.0000 71.2254 15.5980 0.0000
613 1 1 0.0000 73.6814 12.7620 0.0000
614 1 1 0.0000 72.4534 13.4710 0.0000
615 1 1 0.0000 72.4534 14.8890 0.0000
616 1 1 0.0000 73.6814 15.5980 0.0000
617 1 1 0.0000 76.1375 12.7620 0.0000
618 1 1 0.0000 74.9095 13.4710 0.0000
619 1 1 0.0000 74.9095 14.8890 0.0000
620 1 1 0.0000 76.1375 15.5980 0.0000
621 1 1 0.0000 78.5935 12.7620 0.0000
622 1 1 0.0000 77.3655 13.4710 0.0000
623 1 1 0.0000 77.3655 14.8890 0.0000
624 1 1 0.0000 78.5935 15.5980 0.0000
625 1 1 0.0000 81.0496 12.7620 0.0000
626 1 1 0.0000 79.8216 13.4710 0.0000
627 1 1 0.0000 79.8216 14.8890 0.0000
628 1 1 0.0000 81.0496 15.5980 0.0000
629 1 1 0.0000 83.5056 12.7620 0.0000
630 1 1 0.0000 82.2776 13.4710 0.0000
631 1 1 0.0000 82.2776 14.8890 0.0000
632 1 1 0.0000 83.5056 15.5980 0.0000
633 1 1 0.0000 85.9617 12.7620 0.0000
634 1 1 0.0000 84.7337 13.4710 0.0000
635 1 1 0.0000 84.7337 14.8890 0.0000
636 1 1 0.0000 85.9617 15.5980 0.0000
637 1 1 0.0000 88.4177 12.7620 0.0000
638 1 1 0.0000 87.1897 13.4710 0.0000
639 1 1 0.0000 87.1897 14.8890 0.0000
640 1 1 0.0000 88.4177 15.5980 0.0000
641 1 1 0.0000 90.8738 12.7620 0.0000
642 1 1 0.0000 89.6458 13.4710 0.0000
643 1 1 0.0000 89.6458 14.8890 0.0000
644 1 1 0.0000 90.8738 15.5980 0.0000
645 1 1 0.0000 93.3298 12.7620 0.0000
646 1 1 0.0000 92.1018 13.4710 0.0000
647 1 1 0.0000 92.1018 14.8890 0.0000
648 1 1 0.0000 93.3298 15.5980 0.0000
649 1 1 0.0000 95.7859 12.7620 0.0000
650 1 1 0.0000 94.5578 13.4710 0.0000
651 1 1 0.0000 94.5578 14.8890 0.0000
652 1 1 0.0000 95.7859 15.5980 0.0000
653 1 1 0.0000 98.2419 12.7620 0.0000
654 1 1 0.0000 97.0139 13.4710 0.0000
655 1 1 0.0000 97.0139 14.8890 0.0000
656 1 1 0.0000 98.2419 15.5980 0.0000
657 1 1 0.0000 0.0000 17.0160 0.0000
658 1 1 0.0000 -1.2280 17.7250 0.0000
659 1 1 0.0000 -1.2280 19.1430 0.0000
660 1 1 0.0000 0.0000 19.8520 0.0000
661 1 1 0.0000 2.4560 17.0160 0.0000
662 1 1 0.0000 1.2280 17.7250 0.0000
663 1 1 0.0000 1.2280 19.1430 0.0000
664 1 1 0.0000 2.4560 19.8520 0.0000
665 1 1 0.0000 4.9121 17.0160 0.0000
666 1 1 0.0000 3.6841 17.7250 0.0000
667 1 1 0.0000 3.6841 19.1430 0.0000
668 1 1 0.0000 4.9121 19.8520 0.0000
669 1 1 0.0000 7.3681 17.0160 0.0000
670 1 1 0.0000 6.1401 17.7250 0.0000
671 1 1 0.0000 6.1401 19.1430 0.0000
672 1 1 0.0000 7.3681 19.8520 0.0000
673 1 1 0.0000 9.8242 17.0160 0.0000
674 1 1 0.0000 8.5962 17.7250 0.0000
675 1 1 0.0000 8.5962 19.1430 0.0000
676 1 1 0.0000 9.8242 19.8520 0.0000
677 1 1 0.0000 12.2802 17.0160 0.0000
678 1 1 0.0000 11.0522 17.7250 0.0000
679 1 1 0.0000 11.0522 19.1430 0.0000
680 1 1 0.0000 12.2802 19.8520 0.0000
681 1 1 0.0000 14.7363 17.0160 0.0000
682 1 1 0.0000 13.5083 17.7250 0.0000
683 1 1 0.0000 13.5083 19.1430 0.0000
684 1 1 0.0000 14.7363 19.8520 0.0000
685 1 1 0.0000 17.1923 17.0160 0.0000
686 1 1 0.0000 15.9643 17.7250 0.0000
687 1 1 0.0000 15.9643 19.1430 0.0000
688 1 1 0.0000 17.1923 19.8520 0.0000
689 1 1 0.0000 19.6484 17.0160 0.0000
690 1 1 0.0000 18.4204 17.7250 0.0000
691 1 1 0.0000 18.4204 19.1430 0.0000
692 1 1 0.0000 19.6484 19.8520 0.0000
693 1 1 0.0000 22.1044 17.0160 0.0000
694 1 1 0.0000 20.8764 17.7250 0.0000
695 1 1 0.0000 20.8764 19.1430 0.0000
696 1 1 0.0000 22.1044 19.8520 0.0000
697 1 1 0.0000 24.5605 17.0160 0.0000
698 1 1 0.0000 23.3325 17.7250 0.0000
699 1 1 0.0000 23.3325 19.1430 0.0000
700 1 1 0.0000 24.5605 19.8520 0.0000
701 1 1 0.0000 27.0165 17.0160 0.0000
702 1 1 0.0000 25.7885 17.7250 0.0000
703 1 1 0.0000 25.7885 19.1430 0.0000
704 1 1 0.0000 27.0165 19.8520 0.0000
705 1 1 0.0000 29.4726 17.0160 0.0000
706 1 1 0.0000 28.2446 17.7250 0.0000
707 1 1 0.0000 28.2446 19.1430 0.0000
708 1 1 0.0000 29.4726 19.8520 0.0000
709 1 1 0.0000 31.9286 17.0160 0.0000
710 1 1 0.0000 30.7006 17.7250 0.0000
711 1 1 0.0000 30.7006 19.1430 0.0000
712 1 1 0.0000 31.9286 19.8520 0.0000
713 1 1 0.0000 34.3847 17.0160 0.0000
714 1 1 0.0000 33.1566 17.7250 0.0000
715 1 1 0.0000 33.1566 19.1430 0.0000
716 1 1 0.0000 34.3847 19.8520 0.0000
717 1 1 0.0000 36.8407 17.0160 0.0000
718 1 1 0.0000 35.6127 17.7250 0.0000
719 1 1 0.0000 35.6127 19.1430 0.0000
720 1 1 0.0000 36.8407 19.8520 0.0000
721 1 1 0.0000 39.2968 17.0160 0.0000
722 1 1 0.0000 38.0687 17.7250 0.0000
723 1 1 0.0000 38.0687 19.1430 0.0000
724 1 1 0.0000 39.2968 19.8520 0.0000
725 1 1 0.0000 41.7528 17.0160 0.0000
726 1 1 0.0000 40.5248 17.7250 0.0000
727 1 1 0.0000 40.5248 19.1430 0.0000
728 1 1 0.0000 41.7528 19.8520 0.0000
729 1 1 0.0000 44.2089 17.0160 0.0000
730 1 1 0.0000 42.9808 17.7250 0.0000
731 1 1 0.0000 42.9808 19.1430 0.0000
732 1 1 0.0000 44.2089 19.8520 0.0000
733 1 1 0.0000 46.6649 17.0160 0.0000
734 1 1 0.0000 45.4369 17.7250 0.0000
735 1 1 0.0000 45.4369 19.1430 0.0000
736 1 1 0.0000 46.6649 19.8520 0.0000
737 1 1 0.0000 49.1210 17.0160 0.0000
738 1 1 0.0000 47.8929 17.7250 0.0000
739 1 1 0.0000 47.8929 19.1430 0.0000
740 1 1 0.0000 49.1210 19.8520 0.0000
741 1 1 0.0000 51.5770 17.0160 0.0000
742 1 1 0.0000 50.3490 17.7250 0.0000
743 1 1 0.0000 50.3490 19.1430 0.0000
744 1 1 0.0000 51.5770 19.8520 0.0000
745 1 1 0.0000 54.0331 17.0160 0.0000
746 1 1 0.0000 52.8050 17.7250 0.0000
747 1 1 0.0000 52.8050 19.1430 0.0000
748 1 1 0.0000 54.0331 19.8520 0.0000
749 1 1 0.0000 56.4891 17.0160 0.0000
750 1 1 0.0000 55.2611 17.7250 0.0000
751 1 1 0.0000 55.2611 19.1430 0.0000
752 1 1 0.0000 56.4891 19.8520 0.0000
753 1 1 0.0000 58.9452 17.0160 0.0000
754 1 1 0.0000 57.7171 17.7250 0.0000
755 1 1 0.0000 57.7171 19.1430 0.0000
756 1 1 0.0000 58.9452 19.8520 0.0000
757 1 1 0.0000 61.4012 17.0160 0.0000
758 1 1 0.0000 60.1732 17.7250 0.0000
759 1 1 0.0000 60.1732 19.1430 0.0000
760 1 1 0.0000 61.4012 19.8520 0.0000
761 1 1 0.0000 63.8573 17.0160 0.0000
762 1 1 0.0000 62.6292 17.7250 0.0000
763 1 1 0.0000 62.6292 19.1430 0.0000
764 1 1 0.0000 63.8573 19.8520 0.0000
765 1 1 0.0000 66.3133 17.0160 0.0000
766 1 1 0.0000 65.0853 17.7250 0.0000
767 1 1 0.0000 65.0853 19.1430 0.0000
768 1 1 0.0000 66.3133 19.8520 0.0000
769 1 1 0.0000 68.7693 17.0160 0.0000
770 1 1 0.0000 67.5413 17.7250 0.0000
771 1 1 0.0000 67.5413 19.1430 0.0000
772 1 1 0.0000 68.7693 19.8520 0.0000
773 1 1 0.0000 71.2254 17.0160 0.0000
774 1 1 0.0000 69.9974 17.7250 0.0000
775 1 1 0.0000 69.9974 19.1430 0.0000
776 1 1 0.0000 71.2254 19.8520 0.0000
777 1 1 0.0000 73.6814 17.0160 0.0000
778 1 1 0.0000 72.4534 17.7250 0.0000
779 1 1 0.0000 72.4534 19.1430 0.0000
780 1 1 0.0000 73.6814 19.8520 0.0000
781 1 1 0.0000 76.1375 17.0160 0.0000
782 1 1 0.0000 74.9095 17.7250 0.0000
783 1 1 0.0000 74.9095 19.1430 0.0000
784 1 1 0.0000 76.1375 19.8520 0.0000
785 1 1 0.0000 78.5935 17.0160 0.0000
786 1 1 0.0000 77.3655 17.7250 0.0000
787 1 1 0.0000 77.3655 19.1430 0.0000
788 1 1 0.0000 78.5935 19.8520 0.0000
789 1 1 0.0000 81.0496 17.0160 0.0000
790 1 1 0.0000 79.8216 17.7250 0.0000
791 1 1 0.0000 79.8216 19.1430 0.0000
792 1 1 0.0000 81.0496 19.8520 0.0000
793 1 1 0.0000 83.5056 17.0160 0.0000
794 1 1 0.0000 82.2776 17.7250 0.0000
795 1 1 0.0000 82.2776 19.1430 0.0000
796 1 1 0.0000 83.5056 19.8520 0.0000
797 1 1 0.0000 85.9617 17.0160 0.0000